LAMMPS (17 Apr 2024)
Processor partition = 0
OMP_NUM_THREADS environment is not set. Defaulting to 1 thread. (src/comm.cpp:98)
  using 1 OpenMP thread(s) per MPI task
Loaded 1 plugins from /public/home/jxzhu/workspace/finite-field/softwares/ec-MLP/src/lmp/build
Loaded 1 plugins from /public/home/jxzhu/apps/deepmd/devel/build/deepmd_root/lib/deepmd_lmp
Reading data file ...
  orthogonal box = (0 0 0) to (24.84 24.84 24.84)
  1 by 1 by 1 MPI processor grid
  reading atoms ...
  2048 atoms
  scanning bonds ...
  1 = max bonds/atom
  orthogonal box = (0 0 0) to (24.84 24.84 24.84)
  1 by 1 by 1 MPI processor grid
  reading bonds ...
  512 bonds
Finding 1-2 1-3 1-4 neighbors ...
  special bond factors lj:    0        0        0       
  special bond factors coul:  0        0        0       
     1 = max # of 1-2 neighbors
     0 = max # of 1-3 neighbors
     0 = max # of 1-4 neighbors
     1 = max # of special neighbors
  special bonds CPU = 0.000 seconds
  read_data CPU = 0.008 seconds
1536 atoms in group real_atom
512 atoms in group virtual_atom
Summary of lammps deepmd module ...
  >>> Info of deepmd-kit:
  installed to:       /public/home/jxzhu/apps/deepmd/devel/build/deepmd_root
  source:             v3.0.0-99-gbaaaa179
  source branch:      devel
  source commit:      baaaa179
  source commit at:   2025-03-18 05:55:59 +0000
  support model ver.: 1.1 
  build variant:      cuda
  build with tf inc:  /public/home/jxzhu/.conda/envs/deepmd-devel/lib/python3.11/site-packages/tensorflow/include;/public/home/jxzhu/.conda/envs/deepmd-devel/lib/python3.11/site-packages/tensorflow/include
  build with tf lib:  /public/home/jxzhu/.conda/envs/deepmd-devel/lib/python3.11/site-packages/tensorflow/libtensorflow_cc.so.2
  build with pt lib:  torch;torch_library;/public/home/jxzhu/apps/libtorch/libtorch-cxx11-abi-shared-with-deps-2.1.1+cu121/lib/libc10.so;/public/home/jxzhu/apps/libtorch/libtorch-cxx11-abi-shared-with-deps-2.1.1+cu121/lib/libkineto.a;/public/software/cuda/cuda-12.1/targets/x86_64-linux/lib/stubs/libcuda.so;/public/software/cuda/cuda-12.1/targets/x86_64-linux/lib/libnvrtc.so;/public/software/cuda/cuda-12.1/lib64/libnvToolsExt.so;/public/software/cuda/cuda-12.1/lib64/libcudart.so;/public/home/jxzhu/apps/libtorch/libtorch-cxx11-abi-shared-with-deps-2.1.1+cu121/lib/libc10_cuda.so
  set tf intra_op_parallelism_threads: 0
  set tf inter_op_parallelism_threads: 0
  >>> Info of lammps module:
  use deepmd-kit at:  /public/home/jxzhu/apps/deepmd/devel/build/deepmd_root
  source:             v3.0.0-99-gbaaaa179
  source branch:      devel
  source commit:      baaaa179
  source commit at:   2025-03-18 05:55:59 +0000
  build with inc:     /public/home/jxzhu/apps/libtorch/libtorch-cxx11-abi-shared-with-deps-2.1.1+cu121/include;/public/home/jxzhu/apps/libtorch/libtorch-cxx11-abi-shared-with-deps-2.1.1+cu121/include/torch/csrc/api/include
  build with lib:     /public/home/jxzhu/.conda/envs/deepmd-devel/lib/python3.11/site-packages/tensorflow;/public/home/jxzhu/apps/libtorch/libtorch-cxx11-abi-shared-with-deps-2.1.1+cu121/lib
WARNING: Interaction between types 1 and 3 is set with deepmd, but will be ignored.
 Deepmd model has only 2 types, it only computes the mulitbody interaction of types: 1-2. (/public/home/jxzhu/apps/deepmd/devel/source/lmp/pair_deepmd.cpp:883)
WARNING: Interaction between types 2 and 3 is set with deepmd, but will be ignored.
 Deepmd model has only 2 types, it only computes the mulitbody interaction of types: 1-2. (/public/home/jxzhu/apps/deepmd/devel/source/lmp/pair_deepmd.cpp:883)
WARNING: Interaction between types 3 and 3 is set with deepmd, but will be ignored.
 Deepmd model has only 2 types, it only computes the mulitbody interaction of types: 1-2. (/public/home/jxzhu/apps/deepmd/devel/source/lmp/pair_deepmd.cpp:883)
Finding 1-2 1-3 1-4 neighbors ...
  special bond factors lj:    1        1        1       
  special bond factors coul:  1        1        1       
     1 = max # of 1-2 neighbors
     1 = max # of special neighbors
  special bonds CPU = 0.000 seconds
WARNING: Temperature for fix modify is not for group all (src/fix_nh.cpp:1397)
Added run_style %s successfully.

CITE-CITE-CITE-CITE-CITE-CITE-CITE-CITE-CITE-CITE-CITE-CITE-CITE

Your simulation uses code contributions which should be cited:
- USER-DEEPMD package:
The log file lists these citations in BibTeX format.

CITE-CITE-CITE-CITE-CITE-CITE-CITE-CITE-CITE-CITE-CITE-CITE-CITE

PPPM initialization ...
  using 12-bit tables for long-range coulomb (src/kspace.cpp:342)
  G vector (1/distance) = 0.4
  grid = 64 64 64
  stencil order = 5
  estimated absolute RMS force accuracy = 0.34534068
  estimated relative force accuracy = 0.023982583
  using double precision FFTW3
  3d grid and FFT values/proc = 421875 262144
WARNING: Interaction between types 1 and 3 is set with deepmd, but will be ignored.
 Deepmd model has only 2 types, it only computes the mulitbody interaction of types: 1-2. (/public/home/jxzhu/apps/deepmd/devel/source/lmp/pair_base.cpp:446)
WARNING: Interaction between types 2 and 3 is set with deepmd, but will be ignored.
 Deepmd model has only 2 types, it only computes the mulitbody interaction of types: 1-2. (/public/home/jxzhu/apps/deepmd/devel/source/lmp/pair_base.cpp:446)
WARNING: Interaction between types 3 and 3 is set with deepmd, but will be ignored.
 Deepmd model has only 2 types, it only computes the mulitbody interaction of types: 1-2. (/public/home/jxzhu/apps/deepmd/devel/source/lmp/pair_base.cpp:446)
Generated 0 of 3 mixed pair_coeff terms from geometric mixing rule
WARNING: Neighbor exclusions used with KSpace solver may give inconsistent Coulombic energies (src/neighbor.cpp:654)
Neighbor list info ...
  update: every = 10 steps, delay = 0 steps, check = no
  max neighbors/atom: 2000, page size: 100000
  master list distance cutoff = 8
  ghost atom cutoff = 8
  binsize = 4, bins = 7 7 7
  1 neighbor lists, perpetual/occasional/extra = 1 0 0
  (1) pair deepmd, perpetual
      attributes: full, newton on
      pair build: full/bin
      stencil: full/bin/3d
      bin: standard
Setting up Verlet/split run ...
Setting up Verlet run ...
  Unit style    : metal
  Current step  : 0
  Time step     : 0.0005
Per MPI rank memory allocation (min/avg/max) = 46 | 46 | 46 Mbytes
   Step          Temp          E_pair         E_mol          TotEng         Press     
         0   300           -7477.9535      0             -7398.5748     -15512.225    
        10   263.22486     -7487.2537      0             -7417.6056      34661.622    
        20   259.78925     -7486.1834      0             -7417.4444     -16186.15     
        30   286.35422     -7493.3446      0             -7417.5766      28947.54     
        40   260.59626     -7486.5262      0             -7417.5736     -11744.73     
        50   282.71131     -7492.5445      0             -7417.7404      21959.386    
        60   259.845       -7486.5915      0             -7417.8377     -3961.4262    
        70   272.54196     -7490.3929      0             -7418.2795      16569.721    
        80   251.5653      -7485.1545      0             -7418.5914      1588.3912    
        90   267.58593     -7489.7685      0             -7418.9665      10919.052    
       100   263.347       -7489.0276      0             -7419.3472      6857.6569    
       110   277.24977     -7493.104       0             -7419.7449      7715.4292    
       120   265.19066     -7490.2192      0             -7420.0509      8230.839     
       130   264.62113     -7490.417       0             -7420.3994      5719.6199    
       140   264.55204     -7490.7613      0             -7420.762       9547.2254    
       150   275.31429     -7493.9171      0             -7421.0702      5822.8805    
       160   272.57229     -7493.4838      0             -7421.3624      8097.932     
       170   266.63029     -7492.2912      0             -7421.742       5909.4653    
       180   260.25307     -7491.0166      0             -7422.1548      8492.4256    
       190   258.51604     -7490.8679      0             -7422.4657      7329.5509    
       200   258.85316     -7491.2493      0             -7422.7579      8002.9191