ITEM: TIMESTEP
0
ITEM: NUMBER OF ATOMS
1536
ITEM: BOX BOUNDS pp pp pp
0.0000000000000000e+00 2.4840000000000000e+01
0.0000000000000000e+00 2.4840000000000000e+01
0.0000000000000000e+00 2.4840000000000000e+01
ITEM: ATOMS id element xu yu zu fx fy fz vx vy vz
1 O 4.88408 2.21818 5.47467 0.552719 -0.370459 0.162543 -6.81002 -4.86942 3.53747
2 H 5.82118 2.50996 5.67133 -0.673576 -0.113644 -0.227886 -2.20046 1.99167 -15.3719
3 H 4.45554 2.87537 4.85393 0.409726 0.35354 0.0359029 -24.7475 9.99463 9.84457
4 O 1.88157 6.23867 5.87847 -0.511893 -0.2512 0.236988 6.04142 -1.40504 0.289993
5 H 1.84684 6.64492 6.79118 -0.505182 0.0233523 -0.652273 18.1943 -25.2986 -24.4375
6 H 0.954163 6.14574 5.51817 1.03986 0.300626 0.641 1.69154 9.572 -26.9444
7 O 4.16888 9.15069 0.123226 0.717226 0.044457 -0.53805 -1.53836 -5.75895 -1.1115
8 H 4.28733 8.42132 11.8693 -0.291529 0.0862287 0.826974 10.2957 5.07072 23.6016
9 H 3.71853 8.78495 0.936244 -0.104807 -0.25518 -0.383428 19.027 1.67185 -22.3284
10 O 7.05616 12.2595 6.94371 -1.17962 -0.236921 -0.835496 2.18092 -0.958224 2.78929
11 H 6.33994 11.5771 6.80518 0.560293 0.721372 0.0314521 22.5413 14.5595 -12.9894
12 H 6.97554 0.55413 6.24765 0.110657 -0.443014 0.688859 -24.7245 13.1289 -9.38599
13 O 0.124259 8.02741 3.93713 -0.608147 -0.248173 -0.362451 1.88833 3.72225 6.77454
14 H 0.0364497 7.15952 3.44893 0.0530384 1.21216 0.244805 -7.31189 -13.66 26.4563
15 H 11.7344 8.58885 3.7688 0.340981 -1.01976 0.0698674 12.2616 14.0751 8.32295
16 O 11.7707 1.71731 3.40609 -0.720467 -0.517772 -0.204846 -5.81073 2.00665 5.31255
17 H 12.2245 1.30956 4.19793 0.127585 0.529361 -0.30099 -12.3859 -3.28653 14.6211
18 H 11.9089 2.70846 3.41689 0.331021 -0.6589 0.382462 -1.1552 -14.1675 -12.3072
19 O 0.575247 7.42463 12.0201 0.306358 0.233308 -0.647515 -1.87042 -4.38861 -0.162351
20 H 1.45049 7.79571 11.7057 -1.42938 0.04067 0.412602 21.8475 22.6124 -24.0485
21 H 12.3567 8.17587 12.1859 1.01163 -0.250265 0.191453 22.2308 0.444498 0.915473
22 O 10.3394 10.861 10.5959 -0.101612 -0.427004 -0.148104 -2.42359 6.88782 -0.0597892
23 H 9.75826 10.6755 11.3867 -0.292296 0.618854 -0.682429 -12.7456 -22.2222 24.5508
24 H 9.7697 11.1142 9.8138 -0.0447459 0.27374 0.586123 -23.2847 0.235475 -6.32346
25 O 8.19857 10.3107 0.0227654 0.518791 -0.379935 0.536105 -3.0004 5.88652 0.432039
26 H 7.50595 10.8214 0.530789 0.561018 -0.374978 -0.0364298 -1.88298 24.3528 -24.6226
27 H 8.72384 9.74059 0.654064 -0.788333 0.853059 -0.490957 14.3899 14.9981 17.9803
28 O 6.54086 3.30805 10.8625 -0.219208 1.15257 0.047363 -5.08642 -6.45983 2.61419
29 H 7.01933 2.43317 10.9353 0.0849342 0.125498 -0.613928 20.2365 7.2929 12.963
30 H 7.21107 4.04909 10.7987 -0.0601212 -1.01706 0.139662 12.4123 27.5562 21.3083
31 O 4.07921 6.97397 4.36151 0.311742 -0.290334 0.17927 -3.60382 -2.46623 -2.02543
32 H 3.2679 6.61791 4.82231 0.429821 0.337477 0.132099 0.791724 5.18778 18.9753
33 H 4.89759 6.70892 4.87197 -0.984945 -0.0420011 -0.529603 -4.75144 18.9041 -12.6134
34 O 11.4426 11.3596 2.55936 -0.0789936 0.103143 0.37188 -1.09867 0.709652 -0.418091
35 H 10.7791 10.9095 3.15474 0.384041 0.602378 -0.555834 -11.5915 -17.4239 -18.9456
36 H 11.3104 12.3505 2.59993 -0.0305301 -0.907203 0.102952 3.98974 16.762 -25.5555
37 O 1.37283 4.16331 12.1436 -0.0990786 0.0218848 -0.81388 0.538281 0.175844 6.284
38 H 0.772688 3.58827 11.5887 1.02503 0.847304 0.314272 13.6656 3.18675 21.4269
39 H 2.05872 4.59406 11.5548 -1.12149 -0.857011 0.305621 6.90364 18.9331 -18.6143
40 O 2.83292 8.21316 2.26625 0.579559 0.272722 0.12196 -3.8849 3.14889 -5.0584
41 H 3.3876 7.64675 2.87538 -0.192316 0.874693 0.230367 -22.3402 -12.1509 -27.2018
42 H 2.58815 9.06345 2.73225 -0.0472304 -0.724769 -0.083199 -4.63025 -25.7201 11.5166
43 O 4.1948 4.27212 11.9591 -0.132801 -0.626614 0.473146 6.08547 -3.37935 -4.36449
44 H 5.02798 3.81134 11.651 -0.48699 0.085182 0.389644 -9.93024 21.3954 8.35253
45 H 3.78182 3.75143 0.284659 0.822294 0.412362 -0.852923 -19.0894 10.1306 -6.23184
46 O 7.76099 1.90516 1.186 0.291065 0.0948921 -0.306187 -1.4791 0.193181 -4.82321
47 H 7.5188 1.78743 0.222615 0.481188 -0.740608 0.713116 4.84054 19.1268 4.95902
48 H 7.87324 1.00913 1.61375 0.143804 0.11746 -0.164754 25.0111 3.27233 -19.2506
49 O 10.052 2.8463 0.00578914 0.36299 -0.265607 0.185632 6.70981 -1.05767 -4.90176
50 H 9.33476 2.48441 0.599031 0.673033 -0.0587092 -0.450057 3.61965 -13.3813 -0.606124
51 H 10.86 2.25903 0.0608631 -0.930578 0.335924 -0.0467894 -1.90573 25.4547 -20.4623
52 O 11.6598 11.3679 6.92492 -0.795994 0.0852931 0.7784 -4.06357 -2.28848 1.80041
53 H 12.3275 10.7754 6.47296 -0.017354 -1.12666 0.779747 -20.3834 8.48215 6.68592
54 H 11.323 10.9209 7.75224 0.69378 0.575032 -1.35438 16.6664 -13.616 -1.268
55 O 9.84384 9.10836 3.66994 -0.349915 -0.221685 -0.0223561 -1.45726 -3.88341 -6.46157
56 H 9.6794 8.53655 2.86623 -0.445566 0.560235 0.870697 22.0676 -3.8296 -19.5864
57 H 9.03648 9.09911 4.25792 0.954501 -0.0199383 -1.04291 24.5771 -4.71615 -20.1798
58 O 9.01988 4.64904 10.6178 -0.534722 0.420319 0.145968 5.36708 -5.41066 -4.62157
59 H 9.41737 3.96129 11.2244 0.0517922 0.464496 0.380245 -23.4318 -7.17975 -13.504
60 H 8.61908 5.38455 11.1636 0.519222 -0.716617 -0.168351 -19.9234 15.7074 -2.42516
61 O 5.2371 8.2509 6.95586 0.46829 -0.0123646 -0.00883095 -2.00435 -0.459106 4.27086
62 H 5.77376 8.63792 7.70607 -1.22903 -0.116719 -0.436575 23.711 8.50364 -15.5752
63 H 4.586 7.5863 7.31883 0.869019 0.412964 0.0731722 9.90236 22.5968 -13.6646
64 O 1.38176 5.91134 1.90297 0.0206402 -0.121752 -0.0545946 5.02625 -0.198387 0.104918
65 H 1.07752 5.85078 0.951995 0.467913 0.465195 1.01826 5.564 17.5922 14.0377
66 H 2.02519 6.67238 1.99771 -1.14025 -0.338988 -0.496756 -2.00354 24.9218 7.29422
67 O 5.08235 11.899 10.6909 -0.343996 0.839126 1.21011 -0.769563 4.66116 2.62142
68 H 4.72287 0.334002 11.0646 -0.294192 -1.43196 -0.221751 11.1411 26.8817 24.9151
69 H 5.17881 11.2279 11.4249 -0.356485 1.02066 -0.173777 19.3065 -11.3441 2.07314
70 O 0.759581 0.594221 5.48343 0.630267 -0.315874 0.0496149 0.263083 -5.25584 -1.15904
71 H 0.136866 12.3991 5.96422 0.905497 0.887726 0.197024 4.26701 20.8243 -3.26155
72 H 1.65382 0.582807 5.93215 -1.00939 -0.190127 -0.210407 12.6498 20.4243 11.8355
73 O 6.76829 8.20764 4.44157 -0.345241 0.524059 0.0678113 4.19936 3.0365 3.3465
74 H 6.44658 8.47469 5.34918 -0.506955 -0.199378 -1.06619 -26.2786 21.3428 1.39179
75 H 6.00415 8.22493 3.79723 0.727299 0.0590446 1.17769 -1.9445 -23.6212 11.7139
76 O 3.58386 0.34294 6.9652 0.27726 0.422069 -0.271791 -0.0874119 2.50224 2.52611
77 H 4.23475 0.955218 6.51335 -0.74447 0.0253713 0.505558 -16.3932 23.0192 20.0654
78 H 3.16068 0.818299 7.73576 -0.0247068 -0.258407 -0.15332 21.4291 2.60415 -19.7412
79 O 8.66758 6.82409 5.89127 0.397942 -0.207192 -0.233075 -0.618083 6.92522 -3.88826
80 H 8.06212 7.40959 5.3519 0.598199 -0.901075 -0.0842486 -2.89213 -9.89711 0.826047
81 H 9.26537 6.30817 5.27666 -0.839361 0.844596 0.398424 20.9627 -3.10498 -1.75552
82 O 7.36679 0.878824 11.0711 0.0672049 -0.219046 0.257547 4.28089 -1.65727 -3.94344
83 H 7.94811 0.282083 10.517 -0.509834 0.66015 0.0588479 27.4053 -18.7782 7.17094
84 H 6.43863 0.510662 11.0965 0.934793 -0.459572 -0.472198 6.43808 -27.1598 -27.3179
85 O 0.948983 9.60087 6.12611 0.0347927 -0.330144 -0.464894 3.82306 3.32248 -2.46319
86 H 0.655163 9.0917 5.31727 0.494095 -0.0360424 0.797079 -4.44233 10.1934 9.91389
87 H 1.2296 8.96055 6.84025 -0.229393 0.33023 -0.527091 -16.0806 18.6252 11.4673
88 O 1.02455 4.46927 9.15303 0.715091 -0.581726 -0.787199 4.58418 -5.378 -5.72786
89 H 0.410347 5.2583 9.16069 0.0749503 -0.459427 -0.371 14.5263 7.29446 -15.6516
90 H 1.16241 4.1639 8.21024 -0.349487 0.579918 1.07811 -15.6268 -22.752 -6.06704
91 O 4.65828 10.7828 5.63112 0.389888 -0.548906 0.13896 6.28157 6.35025 -1.49143
92 H 4.20362 11.3897 6.28228 -0.235797 -0.43075 0.0704607 -12.5774 10.7234 -11.8071
93 H 4.69622 9.85745 6.0062 -0.239504 0.835197 -0.0238746 15.2308 15.7464 -4.22448
94 O 8.8761 12.3463 8.7249 0.500036 -0.106818 0.866688 -2.93063 -4.01105 -6.69612
95 H 8.04337 12.2911 8.17485 0.238904 0.227009 0.0787795 -16.8167 26.6675 -13.9972
96 H 9.27496 0.839981 8.63422 -0.581285 -0.468528 -0.0379664 17.5786 -19.7176 -5.55648
97 O 4.35763 6.75469 10.9434 -0.0503593 0.656022 0.0346711 1.45345 -4.24599 4.53774
98 H 4.39802 6.73859 9.94368 0.0599827 -0.60546 0.737855 -18.6843 26.9251 -13.2788
99 H 4.18546 5.83187 11.2851 0.22469 0.306447 -0.209944 -14.5283 -21.6249 -15.3472
100 O 1.93374 3.01224 2.11863 0.0141521 0.441054 0.52674 1.91691 2.89174 4.07596
101 H 1.74109 3.65401 1.37533 0.216363 -0.24265 0.350301 10.8144 14.0524 9.30907
102 H 2.35765 3.50339 2.87992 -0.168046 -0.290022 -1.04992 7.37367 -24.1006 5.40316
103 O 5.81273 11.3095 1.1442 0.153152 -0.61178 -0.140059 -3.68889 -2.29497 2.77065
104 H 5.48616 11.5903 2.04591 0.0194391 -0.239405 -0.330206 -20.8915 14.5799 1.45401
105 H 5.48162 10.3893 0.939476 -0.375572 0.67642 0.309273 3.01778 5.01662 -9.30754
106 O 1.96317 11.0014 3.09004 0.0188611 0.190609 0.25988 2.85561 -4.7112 -4.62859
107 H 1.05337 11.3623 2.88746 0.446149 -0.463225 0.810306 -0.739247 19.9293 17.1832
108 H 2.22766 11.2636 4.01792 -0.737302 -0.107697 -1.07056 3.17798 13.2885 -10.0558
109 O 1.98757 9.71007 10.3579 0.434784 0.777505 0.0225824 -4.94938 0.589265 -2.57921
110 H 2.96295 9.93086 10.4028 -1.59826 0.181699 0.237085 4.89162 1.18733 -3.76501
111 H 1.45231 10.5477 10.4663 1.19306 -0.890179 -0.17842 -13.1455 -6.91203 -5.83728
112 O 9.14686 7.00743 8.68538 -0.335232 -0.260067 -0.0254799 -0.665952 -0.134673 -1.51923
113 H 9.18436 7.24695 7.71435 -0.415833 -0.762898 0.249367 -12.0253 -22.9052 -7.11227
114 H 8.69704 6.12209 8.79317 0.604049 0.821805 -0.499799 -13.4151 9.60677 9.67697
115 O 1.50918 7.85681 8.23206 0.429862 0.179095 0.16394 0.256232 3.33999 3.05847
116 H 2.26185 8.14115 8.82681 -1.4931 0.0348366 -0.457816 24.4274 -1.95619 24.1344
117 H 0.638169 8.03839 8.6863 1.19164 -0.513256 -0.0263448 -9.71001 -1.9706 0.962218
118 O 1.99694 1.43032 8.93037 0.698684 1.24463 -0.171866 2.28317 -1.15301 1.47552
119 H 1.15284 1.15211 9.38588 0.178119 0.095435 -0.595656 26.7144 -18.9541 9.34071
120 H 2.02832 2.42845 8.86516 -0.325554 -1.30705 0.302932 -8.49078 2.48155 1.27239
121 O 0.220211 1.37068 0.277321 -1.57622 1.0082 -0.314018 4.59148 -6.47244 -3.08147
122 H 0.167193 2.01616 1.03912 0.638247 -1.10646 -0.620327 7.89674 2.72402 22.912
123 H 1.06612 0.841199 0.347686 0.290747 0.39962 0.755609 -12.7199 25.9473 -13.8505
124 O 9.83999 5.54296 3.16619 -0.630839 -0.732562 0.218232 4.7941 2.86447 -0.585364
125 H 9.30161 6.17754 2.61121 0.625643 -0.432534 0.0254492 17.4349 -25.9827 -18.5605
126 H 9.45751 4.62337 3.08754 0.0333493 0.780356 0.0995367 11.401 11.5811 -3.4478
127 O 5.30258 2.26101 1.845 -0.803989 -0.189444 0.00604339 1.19786 3.65762 6.78135
128 H 5.05 1.2944 1.83651 0.450521 1.21556 -0.148189 10.7836 -11.8812 13.9292
129 H 6.24941 2.36084 1.53526 -0.506662 -0.533885 0.399231 -17.9476 -26.9593 -0.213007
130 O 9.36341 11.9809 5.50933 0.291872 0.228785 0.106969 -5.71131 -4.43572 5.56821
131 H 10.2836 12.0291 5.89963 -0.989004 -0.3989 0.117963 15.5664 13.7094 -3.45946
132 H 8.6867 12.0671 6.23906 0.762501 -0.194925 -0.690788 -26.9771 4.84123 1.03524
133 O 12.1052 4.21377 4.07709 0.446083 0.757795 -0.782774 -5.89098 0.802031 -1.49311
134 H 0.480999 4.47672 3.52917 -1.06389 -0.0251723 0.253897 -15.5019 -6.06061 6.97227
135 H 11.2935 4.68259 3.72951 0.804027 0.203605 0.0220804 8.77727 11.6629 2.14082
136 O 9.29852 7.50035 1.37315 0.437539 -0.231317 -0.500095 -2.9563 4.54064 -1.73815
137 H 10.2213 7.56062 0.989453 -1.19123 0.0209727 0.181241 10.2589 -10.2019 -26.854
138 H 8.66324 7.19574 0.663988 0.415891 0.380338 0.0980386 -21.6387 1.3449 15.1353
139 O 5.33583 0.0556663 3.57633 -0.0916813 0.0317231 0.0964871 -3.77582 -5.91794 -5.88052
140 H 5.09188 0.978491 3.87511 0.305036 -1.10096 0.311149 -18.545 12.4541 -11.0957
141 H 5.14532 11.8255 4.31033 -0.139445 0.433201 -0.137596 -24.5526 -1.0191 -2.32357
142 O 7.6931 2.29125 5.92601 -0.160293 0.55238 0.844882 0.339445 -0.538999 -4.78501
143 H 8.15633 2.57119 6.76698 0.11166 -0.472091 -0.965941 -11.6611 18.4753 10.7397
144 H 8.30541 2.43317 5.14668 -0.232791 -0.0693039 0.199784 4.32504 10.1206 -9.22491
145 O 9.39178 2.59959 8.36228 0.446925 0.28353 0.311306 -6.01987 6.89113 0.605912
146 H 10.2899 2.63277 7.92115 -0.424281 0.41546 0.274376 -27.2337 19.7083 -25.758
147 H 9.41963 3.12595 9.21188 0.202025 -0.405615 -1.14687 -6.64296 -0.37012 4.19565
148 O 11.1774 9.42818 0.490933 0.443884 0.157294 -0.705554 3.35017 2.66247 0.521678
149 H 11.5101 10.0414 1.20777 -0.309663 0.0970528 -0.608283 -25.3751 -20.4817 25.9526
150 H 11.2562 9.8825 12.0225 0.0401355 -0.139605 1.18139 -17.0111 -7.94775 6.27462
151 O 5.63537 10.2093 8.85952 -0.205343 -0.0698666 -0.0874805 1.54422 -4.94649 0.749855
152 H 5.1596 10.9511 9.33169 0.772377 -0.630375 -0.360082 24.9355 -7.64065 18.5436
153 H 6.35873 9.84876 9.44849 -0.575594 0.378784 -0.364142 26.0433 -13.004 -13.5878
154 O 12.1675 0.629412 9.95459 -0.327078 -0.24786 0.521328 -0.975728 4.50099 5.49414
155 H 11.5885 12.2366 9.9966 0.616744 0.917334 0.516033 -13.9265 14.4729 10.6969
156 H 12.3464 0.96153 10.8805 -0.650439 -0.626022 -0.277192 -2.57289 -12.7517 9.08901
157 O 9.01363 2.68093 3.64659 0.25652 0.35965 -0.564128 -5.20733 -3.79663 -5.28873
158 H 9.83309 2.10972 3.70106 -0.293126 0.273839 -0.505471 2.63781 -26.8593 -17.7265
159 H 8.58498 2.56327 2.75071 0.470427 -0.413483 0.98062 5.50734 -3.5332 -22.8465
160 O 6.18192 4.11196 8.23583 0.565846 -0.365728 -0.240874 2.64147 -1.51768 4.64569
161 H 6.0541 3.81783 9.18202 0.545455 -0.379359 -0.564384 -20.5519 26.1258 -25.7427
162 H 6.87151 3.53491 7.79694 -0.992971 0.727544 0.843713 -22.9229 -0.118528 14.7823
163 O 2.37807 3.57697 6.66661 0.63379 -0.00543385 -0.40024 6.03231 -3.23849 -1.9066
164 H 3.03764 3.02006 6.16063 -0.643735 0.930107 0.720398 14.8062 0.194295 13.6766
165 H 2.45564 4.53088 6.37357 -0.151362 -0.894575 -0.193029 9.48118 10.1481 14.0884
166 O 8.36416 12.1443 2.95969 -0.894786 -0.112586 -0.485354 -6.31009 -3.50776 -3.8039
167 H 7.40665 11.8675 3.02477 1.2328 0.344249 0.454942 3.49384 8.5571 6.41074
168 H 8.78685 12.1041 3.86484 -0.561237 -0.0315788 -0.0540616 -6.97626 -14.8782 -14.5649
169 O 2.43944 0.574181 1.10379 0.412027 -0.736205 0.167931 2.16844 -4.39658 3.37933
170 H 2.28118 1.36862 1.69017 0.23111 -0.285553 -0.0979117 -18.5733 -24.5828 8.89674
171 H 2.37294 12.1588 1.64756 0.223973 0.813808 0.0418572 -20.4802 24.8008 -0.843538
172 O 11.7906 6.43168 9.41939 -0.561784 0.745394 0.638138 1.72893 5.88937 -6.60498
173 H 11.8176 6.52278 10.4143 -0.0471842 0.0975801 -0.886911 5.18888 12.3505 -0.164204
174 H 10.8568 6.57878 9.09505 0.458757 -0.203391 0.580811 -24.3832 -3.00052 1.07339
175 O 3.98284 3.93116 3.71556 0.424641 0.361814 -0.0699342 3.8037 -5.77938 -0.763575
176 H 4.47678 4.76892 3.95214 -0.437847 -0.903639 -0.346463 26.2037 -1.57033 -9.34097
177 H 4.51084 3.41434 3.04078 -0.0874944 0.381825 -0.106607 -2.89725 13.5229 -16.1178
178 O 7.59518 8.93842 10.0337 0.927412 0.161269 -0.0887795 -4.45375 -1.55605 6.06902
179 H 8.14923 9.62593 10.5046 -0.480631 -1.03743 -0.0754202 25.5283 -13.2263 -23.5132
180 H 8.19486 8.32384 9.52018 0.070256 0.638342 0.000100408 -20.5403 1.63948 -18.597
181 O 11.7681 3.02983 6.51606 0.262706 -0.225686 0.373513 0.308079 -5.23176 4.71952
182 H 11.8162 3.26134 5.54355 0.472999 -0.13398 1.22691 -7.13532 -3.9724 -9.44114
183 H 0.237821 2.68815 6.82017 -1.10319 0.393022 -0.982506 11.7623 4.40239 20.3942
184 O 4.41049 6.05511 8.39027 -1.1697 -0.0257421 -0.349553 3.61536 4.82479 2.77005
185 H 5.14368 5.40877 8.17694 -0.424364 -0.265647 0.133562 -6.01247 24.0385 5.80775
186 H 3.54023 5.56774 8.44213 1.07852 0.172593 -0.140089 -7.4902 2.36074 -2.43803
187 O 6.03018 5.19146 5.17515 0.930383 -0.13525 0.466354 -1.28707 -3.37207 -5.70933
188 H 6.39953 5.6112 6.00438 0.0868591 -0.809812 -1.27407 -4.23117 -1.31624 -11.4932
189 H 6.74103 4.64079 4.73618 -0.627019 0.935731 1.01276 -21.5745 -15.3391 16.5671
190 O 7.39667 6.86638 11.7322 -0.172556 -0.457118 0.183401 0.441887 2.51793 5.02293
191 H 7.39624 7.22223 10.7967 -0.563733 0.298713 1.49276 -13.9723 11.7859 -12.9231
192 H 6.50957 7.04297 12.1563 0.784761 -0.196345 -1.11431 -6.35421 -22.755 -2.1811
193 O 4.88408 2.21818 17.8947 0.552719 -0.370459 0.162543 -3.60833 4.25769 -0.0959998
194 H 5.82118 2.50996 18.0913 -0.673576 -0.113644 -0.227886 -27.1476 -12.6148 9.04439
195 H 4.45554 2.87537 17.2739 0.409726 0.35354 0.0359029 -4.03328 -16.9584 25.4114
196 O 1.88157 6.23867 18.2985 -0.511893 -0.2512 0.236988 -4.96716 4.2646 6.15591
197 H 1.84684 6.64492 19.2112 -0.505182 0.0233523 -0.652273 -17.9489 6.0033 -23.871
198 H 0.954163 6.14574 17.9382 1.03986 0.300626 0.641 -8.28952 -11.1715 0.552089
199 O 4.16888 9.15069 12.5432 0.717226 0.044457 -0.53805 4.5447 4.79372 3.1365
200 H 4.28733 8.42132 24.2893 -0.291529 0.0862287 0.826974 -9.27867 16.7444 7.24079
201 H 3.71853 8.78495 13.3562 -0.104807 -0.25518 -0.383428 -24.8408 -24.9234 -18.9678
202 O 7.05616 12.2595 19.3637 -1.17962 -0.236921 -0.835496 3.73662 -5.82922 0.288437
203 H 6.33994 11.5771 19.2252 0.560293 0.721372 0.0314521 23.5727 -15.1129 -16.1605
204 H 6.97554 0.55413 18.6676 0.110657 -0.443014 0.688859 -22.4496 11.1355 11.3326
205 O 0.124259 8.02741 16.3571 -0.608147 -0.248173 -0.362451 -0.00920818 -3.07868 2.93202
206 H 0.0364497 7.15952 15.8689 0.0530384 1.21216 0.244805 -6.59827 -16.2014 -14.6242
207 H 11.7344 8.58885 16.1888 0.340981 -1.01976 0.0698674 -3.43592 -1.47408 19.8082
208 O 11.7707 1.71731 15.8261 -0.720467 -0.517772 -0.204846 6.62639 -0.566091 -6.38089
209 H 12.2245 1.30956 16.6179 0.127585 0.529361 -0.30099 1.36679 -25.4592 13.8914
210 H 11.9089 2.70846 15.8369 0.331021 -0.6589 0.382462 5.08165 17.8841 -9.31234
211 O 0.575247 7.42463 24.4401 0.306358 0.233308 -0.647515 -3.61917 0.698986 -0.930933
212 H 1.45049 7.79571 24.1257 -1.42938 0.04067 0.412602 -5.21704 26.8915 25.5995
213 H 12.3567 8.17587 24.6059 1.01163 -0.250265 0.191453 19.2661 20.3285 -10.2969
214 O 10.3394 10.861 23.0159 -0.101612 -0.427004 -0.148104 -4.76984 7.03846 1.9414
215 H 9.75826 10.6755 23.8067 -0.292296 0.618854 -0.682429 -1.6842 23.8563 10.4732
216 H 9.7697 11.1142 22.2338 -0.0447459 0.27374 0.586123 17.342 2.47194 4.01124
217 O 8.19857 10.3107 12.4428 0.518791 -0.379935 0.536105 -4.62099 6.3187 4.4412
218 H 7.50595 10.8214 12.9508 0.561018 -0.374978 -0.0364298 -18.8112 -24.9424 -8.54355
219 H 8.72384 9.74059 13.0741 -0.788333 0.853059 -0.490957 -21.2978 -21.9042 1.05139
220 O 6.54086 3.30805 23.2825 -0.219208 1.15257 0.047363 -6.50207 1.04211 4.92989
221 H 7.01933 2.43317 23.3553 0.0849342 0.125498 -0.613928 0.99081 9.75689 13.015
222 H 7.21107 4.04909 23.2187 -0.0601212 -1.01706 0.139662 10.9359 -25.9434 -16.8496
223 O 4.07921 6.97397 16.7815 0.311742 -0.290334 0.17927 2.41565 -1.92244 -5.94026
224 H 3.2679 6.61791 17.2423 0.429821 0.337477 0.132099 -19.6166 23.2648 -15.2241
225 H 4.89759 6.70892 17.292 -0.984945 -0.0420011 -0.529603 -6.50249 4.90853 -18.201
226 O 11.4426 11.3596 14.9794 -0.0789936 0.103143 0.37188 -6.44797 2.82463 3.63012
227 H 10.7791 10.9095 15.5747 0.384041 0.602378 -0.555834 11.7705 -22.9567 4.94262
228 H 11.3104 12.3505 15.0199 -0.0305301 -0.907203 0.102952 23.3729 23.7348 -3.78702
229 O 1.37283 4.16331 24.5636 -0.0990786 0.0218848 -0.81388 0.146693 4.75134 5.78731
230 H 0.772688 3.58827 24.0087 1.02503 0.847304 0.314272 5.63214 12.4581 1.08225
231 H 2.05872 4.59406 23.9748 -1.12149 -0.857011 0.305621 -0.438414 -18.3501 26.1038
232 O 2.83292 8.21316 14.6863 0.579559 0.272722 0.12196 1.08703 -2.92094 0.455137
233 H 3.3876 7.64675 15.2954 -0.192316 0.874693 0.230367 10.9413 9.3474 -22.0289
234 H 2.58815 9.06345 15.1523 -0.0472304 -0.724769 -0.083199 2.7343 6.26275 9.22388
235 O 4.1948 4.27212 24.3791 -0.132801 -0.626614 0.473146 -0.0024101 1.18097 1.24519
236 H 5.02798 3.81134 24.071 -0.48699 0.085182 0.389644 -3.15014 -18.909 0.147634
237 H 3.78182 3.75143 12.7047 0.822294 0.412362 -0.852923 12.7383 -25.4583 -24.5386
238 O 7.76099 1.90516 13.606 0.291065 0.0948921 -0.306187 0.367975 -2.26933 -6.36966
239 H 7.5188 1.78743 12.6426 0.481188 -0.740608 0.713116 -13.896 -21.3212 -6.38775
240 H 7.87324 1.00913 14.0338 0.143804 0.11746 -0.164754 2.90374 5.51946 6.10947
241 O 10.052 2.8463 12.4258 0.36299 -0.265607 0.185632 6.0491 3.93702 0.203813
242 H 9.33476 2.48441 13.019 0.673033 -0.0587092 -0.450057 -0.664969 8.42047 10.8141
243 H 10.86 2.25903 12.4809 -0.930578 0.335924 -0.0467894 -5.0003 -0.523619 -1.08443
244 O 11.6598 11.3679 19.3449 -0.795994 0.0852931 0.7784 2.95819 0.666955 -3.04796
245 H 12.3275 10.7754 18.893 -0.017354 -1.12666 0.779747 5.84581 -11.8488 11.1632
246 H 11.323 10.9209 20.1722 0.69378 0.575032 -1.35438 1.73478 24.2035 -14.4711
247 O 9.84384 9.10836 16.0899 -0.349915 -0.221685 -0.0223561 -1.1248 1.53699 3.91416
248 H 9.6794 8.53655 15.2862 -0.445566 0.560235 0.870697 23.0853 10.1385 17.6165
249 H 9.03648 9.09911 16.6779 0.954501 -0.0199383 -1.04291 1.56625 -14.5786 -19.4953
250 O 9.01988 4.64904 23.0378 -0.534722 0.420319 0.145968 5.55782 -3.22108 2.10627
251 H 9.41737 3.96129 23.6444 0.0517922 0.464496 0.380245 -27.0607 24.0765 -12.2827
252 H 8.61908 5.38455 23.5836 0.519222 -0.716617 -0.168351 19.7172 -11.9132 24.8064
253 O 5.2371 8.2509 19.3759 0.46829 -0.0123646 -0.00883095 0.158385 -4.9875 -1.12539
254 H 5.77376 8.63792 20.1261 -1.22903 -0.116719 -0.436575 11.1556 -3.28216 -21.4643
255 H 4.586 7.5863 19.7388 0.869019 0.412964 0.0731722 14.6452 -21.7219 -3.19436
256 O 1.38176 5.91134 14.323 0.0206402 -0.121752 -0.0545946 -2.07238 -2.59352 3.56519
257 H 1.07752 5.85078 13.372 0.467913 0.465195 1.01826 -8.78154 -9.07401 -24.3201
258 H 2.02519 6.67238 14.4177 -1.14025 -0.338988 -0.496756 4.07344 -0.609263 -16.2745
259 O 5.08235 11.899 23.1109 -0.343996 0.839126 1.21011 -5.23616 6.71878 5.03622
260 H 4.72287 0.334002 23.4846 -0.294192 -1.43196 -0.221751 -0.382335 -7.06713 16.7256
261 H 5.17881 11.2279 23.8449 -0.356485 1.02066 -0.173777 -18.4393 -18.4509 -24.2041
262 O 0.759581 0.594221 17.9034 0.630267 -0.315874 0.0496149 -4.758 -0.241847 -1.61855
263 H 0.136866 12.3991 18.3842 0.905497 0.887726 0.197024 21.0833 -3.95909 -4.78387
264 H 1.65382 0.582807 18.3522 -1.00939 -0.190127 -0.210407 8.35226 -10.3027 -24.0716
265 O 6.76829 8.20764 16.8616 -0.345241 0.524059 0.0678113 4.38768 5.66432 5.79082
266 H 6.44658 8.47469 17.7692 -0.506955 -0.199378 -1.06619 22.0426 14.9894 -18.0102
267 H 6.00415 8.22493 16.2172 0.727299 0.0590446 1.17769 4.03285 -25.4721 16.6355
268 O 3.58386 0.34294 19.3852 0.27726 0.422069 -0.271791 0.370054 5.16885 -3.04038
269 H 4.23475 0.955218 18.9334 -0.74447 0.0253713 0.505558 20.3048 4.95489 -6.04794
270 H 3.16068 0.818299 20.1558 -0.0247068 -0.258407 -0.15332 17.1497 1.60291 24.1184
271 O 8.66758 6.82409 18.3113 0.397942 -0.207192 -0.233075 -1.03482 1.29481 3.44864
272 H 8.06212 7.40959 17.7719 0.598199 -0.901075 -0.0842486 20.9233 -8.67269 -16.9829
273 H 9.26537 6.30817 17.6967 -0.839361 0.844596 0.398424 13.3826 12.1888 20.7928
274 O 7.36679 0.878824 23.4911 0.0672049 -0.219046 0.257547 -5.80821 3.08569 5.2349
275 H 7.94811 0.282083 22.937 -0.509834 0.66015 0.0588479 -7.63833 -22.2704 -18.5452
276 H 6.43863 0.510662 23.5165 0.934793 -0.459572 -0.472198 -4.49313 -21.9102 9.59239
277 O 0.948983 9.60087 18.5461 0.0347927 -0.330144 -0.464894 0.925491 4.50097 5.22297
278 H 0.655163 9.0917 17.7373 0.494095 -0.0360424 0.797079 14.8197 7.60305 21.7439
279 H 1.2296 8.96055 19.2602 -0.229393 0.33023 -0.527091 20.7934 -0.544369 -21.1723
280 O 1.02455 4.46927 21.573 0.715091 -0.581726 -0.787199 -1.61991 -1.41718 2.60213
281 H 0.410347 5.2583 21.5807 0.0749503 -0.459427 -0.371 -20.6558 -22.9842 -19.5162
282 H 1.16241 4.1639 20.6302 -0.349487 0.579918 1.07811 -1.16018 11.6228 -14.3278
283 O 4.65828 10.7828 18.0511 0.389888 -0.548906 0.13896 -1.43454 6.73986 1.7935
284 H 4.20362 11.3897 18.7023 -0.235797 -0.43075 0.0704607 9.99036 22.5841 -7.51445
285 H 4.69622 9.85745 18.4262 -0.239504 0.835197 -0.0238746 19.7417 16.3168 -3.87317
286 O 8.8761 12.3463 21.1449 0.500036 -0.106818 0.866688 -5.79939 0.177912 -0.198712
287 H 8.04337 12.2911 20.5949 0.238904 0.227009 0.0787795 -2.63405 0.177971 13.2114
288 H 9.27496 0.839981 21.0542 -0.581285 -0.468528 -0.0379664 23.775 -10.7522 -19.3577
289 O 4.35763 6.75469 23.3634 -0.0503593 0.656022 0.0346711 -5.29743 -5.57361 6.51933
290 H 4.39802 6.73859 22.3637 0.0599827 -0.60546 0.737855 -4.96526 -14.1327 25.3941
291 H 4.18546 5.83187 23.7051 0.22469 0.306447 -0.209944 18.3317 -16.3419 -20.2733
292 O 1.93374 3.01224 14.5386 0.0141521 0.441054 0.52674 -4.111 -2.01529 1.06358
293 H 1.74109 3.65401 13.7953 0.216363 -0.24265 0.350301 -3.20739 4.88984 -3.65384
294 H 2.35765 3.50339 15.2999 -0.168046 -0.290022 -1.04992 -7.15501 -6.24973 5.50812
295 O 5.81273 11.3095 13.5642 0.153152 -0.61178 -0.140059 -0.905099 -4.63225 2.36314
296 H 5.48616 11.5903 14.4659 0.0194391 -0.239405 -0.330206 27.2018 11.0465 -5.30471
297 H 5.48162 10.3893 13.3595 -0.375572 0.67642 0.309273 19.1975 17.6999 16.094
298 O 1.96317 11.0014 15.51 0.0188611 0.190609 0.25988 -1.66439 -6.5459 -0.255005
299 H 1.05337 11.3623 15.3075 0.446149 -0.463225 0.810306 7.68196 8.22149 7.96028
300 H 2.22766 11.2636 16.4379 -0.737302 -0.107697 -1.07056 16.4452 -6.52104 -7.77346
301 O 1.98757 9.71007 22.7779 0.434784 0.777505 0.0225824 -1.4547 -2.08145 2.68477
302 H 2.96295 9.93086 22.8228 -1.59826 0.181699 0.237085 -19.3873 -11.2231 9.16312
303 H 1.45231 10.5477 22.8863 1.19306 -0.890179 -0.17842 19.4761 -9.95372 -19.4702
304 O 9.14686 7.00743 21.1054 -0.335232 -0.260067 -0.0254799 1.47049 -6.60116 5.80922
305 H 9.18436 7.24695 20.1344 -0.415833 -0.762898 0.249367 -6.40168 1.10231 -8.49742
306 H 8.69704 6.12209 21.2132 0.604049 0.821805 -0.499799 -12.8557 -11.2519 18.2997
307 O 1.50918 7.85681 20.6521 0.429862 0.179095 0.16394 -5.09982 2.04769 -6.18215
308 H 2.26185 8.14115 21.2468 -1.4931 0.0348366 -0.457816 -2.23356 -6.55103 -18.8276
309 H 0.638169 8.03839 21.1063 1.19164 -0.513256 -0.0263448 14.0799 9.28846 -26.7345
310 O 1.99694 1.43032 21.3504 0.698684 1.24463 -0.171866 4.11907 1.03428 -2.88286
311 H 1.15284 1.15211 21.8059 0.178119 0.095435 -0.595656 -4.56085 -9.62985 0.822259
312 H 2.02832 2.42845 21.2852 -0.325554 -1.30705 0.302932 12.0695 18.9333 -14.6633
313 O 0.220211 1.37068 12.6973 -1.57622 1.0082 -0.314018 -0.416521 -1.5445 -6.16365
314 H 0.167193 2.01616 13.4591 0.638247 -1.10646 -0.620327 -23.2791 -16.1026 3.64839
315 H 1.06612 0.841199 12.7677 0.290747 0.39962 0.755609 18.2249 -4.0457 18.6229
316 O 9.83999 5.54296 15.5862 -0.630839 -0.732562 0.218232 -2.78093 -4.18665 -1.93592
317 H 9.30161 6.17754 15.0312 0.625643 -0.432534 0.0254492 23.8444 5.09497 -7.1507
318 H 9.45751 4.62337 15.5075 0.0333493 0.780356 0.0995367 -1.95896 7.19906 24.3693
319 O 5.30258 2.26101 14.265 -0.803989 -0.189444 0.00604339 -1.23078 -5.9839 -0.735254
320 H 5.05 1.2944 14.2565 0.450521 1.21556 -0.148189 5.31933 13.7988 19.9717
321 H 6.24941 2.36084 13.9553 -0.506662 -0.533885 0.399231 -20.1473 -21.4637 9.07831
322 O 9.36341 11.9809 17.9293 0.291872 0.228785 0.106969 4.64839 1.31437 2.20361
323 H 10.2836 12.0291 18.3196 -0.989004 -0.3989 0.117963 26.4695 -26.1562 23.1106
324 H 8.6867 12.0671 18.6591 0.762501 -0.194925 -0.690788 -16.6603 25.8178 1.2869
325 O 12.1052 4.21377 16.4971 0.446083 0.757795 -0.782774 -2.97683 3.21881 1.26679
326 H 0.480999 4.47672 15.9492 -1.06389 -0.0251723 0.253897 18.5294 18.5305 8.78138
327 H 11.2935 4.68259 16.1495 0.804027 0.203605 0.0220804 12.6882 8.03149 -8.2195
328 O 9.29852 7.50035 13.7932 0.437539 -0.231317 -0.500095 0.544143 2.45368 -2.40473
329 H 10.2213 7.56062 13.4095 -1.19123 0.0209727 0.181241 20.2881 -2.96011 22.9185
330 H 8.66324 7.19574 13.084 0.415891 0.380338 0.0980386 -12.1691 24.943 -20.944
331 O 5.33583 0.0556663 15.9963 -0.0916813 0.0317231 0.0964871 -1.09024 4.82173 6.38265
332 H 5.09188 0.978491 16.2951 0.305036 -1.10096 0.311149 -9.08727 1.63093 1.99265
333 H 5.14532 11.8255 16.7303 -0.139445 0.433201 -0.137596 17.49 23.7454 8.94602
334 O 7.6931 2.29125 18.346 -0.160293 0.55238 0.844882 -3.46586 6.26616 1.35292
335 H 8.15633 2.57119 19.187 0.11166 -0.472091 -0.965941 -20.4206 -13.6636 21.2072
336 H 8.30541 2.43317 17.5667 -0.232791 -0.0693039 0.199784 -16.5782 -18.2658 18.4283
337 O 9.39178 2.59959 20.7823 0.446925 0.28353 0.311306 1.47263 1.89126 4.67968
338 H 10.2899 2.63277 20.3412 -0.424281 0.41546 0.274376 9.4672 -5.74366 20.3613
339 H 9.41963 3.12595 21.6319 0.202025 -0.405615 -1.14687 9.23163 -20.8596 -27.3639
340 O 11.1774 9.42818 12.9109 0.443884 0.157294 -0.705554 2.48542 1.96703 -0.601924
341 H 11.5101 10.0414 13.6278 -0.309663 0.0970528 -0.608283 4.13715 -25.4247 -8.11742
342 H 11.2562 9.8825 24.4425 0.0401355 -0.139605 1.18139 19.5154 -6.87856 8.86562
343 O 5.63537 10.2093 21.2795 -0.205343 -0.0698666 -0.0874805 1.11549 -5.85358 3.38434
344 H 5.1596 10.9511 21.7517 0.772377 -0.630375 -0.360082 -12.0144 -2.94623 -17.7021
345 H 6.35873 9.84876 21.8685 -0.575594 0.378784 -0.364142 -22.2958 21.9571 26.9969
346 O 12.1675 0.629412 22.3746 -0.327078 -0.24786 0.521328 1.35925 -6.22422 2.64824
347 H 11.5885 12.2366 22.4166 0.616744 0.917334 0.516033 -0.635899 3.99506 21.7001
348 H 12.3464 0.96153 23.3005 -0.650439 -0.626022 -0.277192 -3.52321 10.5276 -16.2374
349 O 9.01363 2.68093 16.0666 0.25652 0.35965 -0.564128 -0.186723 -2.93205 6.17069
350 H 9.83309 2.10972 16.1211 -0.293126 0.273839 -0.505471 -13.9422 25.0256 -1.23952
351 H 8.58498 2.56327 15.1707 0.470427 -0.413483 0.98062 -20.3629 25.4734 19.5874
352 O 6.18192 4.11196 20.6558 0.565846 -0.365728 -0.240874 -3.82085 -6.58164 3.90691
353 H 6.0541 3.81783 21.602 0.545455 -0.379359 -0.564384 -24.564 25.3977 7.76725
354 H 6.87151 3.53491 20.2169 -0.992971 0.727544 0.843713 4.08535 -19.6826 -20.2973
355 O 2.37807 3.57697 19.0866 0.63379 -0.00543385 -0.40024 4.52806 0.22223 2.1664
356 H 3.03764 3.02006 18.5806 -0.643735 0.930107 0.720398 0.341736 1.64586 -20.8805