LAMMPS (17 Apr 2024)
Processor partition = 0
OMP_NUM_THREADS environment is not set. Defaulting to 1 thread. (src/comm.cpp:98)
  using 1 OpenMP thread(s) per MPI task
Loaded 1 plugins from /home/jxzhu/workspace/softwares/ec-mlp/src/lmp/build
Loaded 1 plugins from /home/jxzhu/apps/deepmd/devel-dplr/build/deepmd_root/lib/deepmd_lmp
Reading data file ...
  orthogonal box = (0 0 0) to (24.84 24.84 24.84)
  1 by 1 by 1 MPI processor grid
  reading atoms ...
  2048 atoms
  scanning bonds ...
  1 = max bonds/atom
  orthogonal box = (0 0 0) to (24.84 24.84 24.84)
  1 by 1 by 1 MPI processor grid
  reading bonds ...
  512 bonds
Finding 1-2 1-3 1-4 neighbors ...
  special bond factors lj:    0        0        0       
  special bond factors coul:  0        0        0       
     1 = max # of 1-2 neighbors
     0 = max # of 1-3 neighbors
     0 = max # of 1-4 neighbors
     1 = max # of special neighbors
  special bonds CPU = 0.000 seconds
  read_data CPU = 0.005 seconds
1536 atoms in group real_atom
512 atoms in group virtual_atom
Summary of lammps deepmd module ...
  >>> Info of deepmd-kit:
  installed to:       /home/jxzhu/apps/deepmd/devel-dplr/build/deepmd_root
  source:             v3.1.0a0-30-g5601d872-dirty
  source branch:      devel
  source commit:      5601d872
  source commit at:   2025-05-21 09:47:03 +0800
  support model ver.: 1.1 
  build variant:      cuda
  build with tf inc:  /home/jxzhu/apps/miniconda3/envs/devel-dplr/lib/python3.11/site-packages/tensorflow/include;/home/jxzhu/apps/miniconda3/envs/devel-dplr/lib/python3.11/site-packages/tensorflow/include
  build with tf lib:  /home/jxzhu/apps/miniconda3/envs/devel-dplr/lib/python3.11/site-packages/tensorflow/libtensorflow_cc.so.2
  build with pt lib:  torch;torch_library;/home/jxzhu/apps/libtorch/libtorch-cxx11-cuda12.4/lib/libc10.so;/home/jxzhu/apps/libtorch/libtorch-cxx11-cuda12.4/lib/libkineto.a;/usr/local/cuda-12.4/targets/x86_64-linux/lib/stubs/libcuda.so;/usr/local/cuda-12.4/targets/x86_64-linux/lib/libnvrtc.so;/usr/local/cuda-12.4/lib64/libnvToolsExt.so;/usr/local/cuda-12.4/lib64/libcudart.so;/home/jxzhu/apps/libtorch/libtorch-cxx11-cuda12.4/lib/libc10_cuda.so
  set tf intra_op_parallelism_threads: 0
  set tf inter_op_parallelism_threads: 0
  >>> Info of lammps module:
  use deepmd-kit at:  /home/jxzhu/apps/deepmd/devel-dplr/build/deepmd_root
  source:             v3.1.0a0-30-g5601d872-dirty
  source branch:      devel
  source commit:      5601d872
  source commit at:   2025-05-21 09:47:03 +0800
  build with inc:     /home/jxzhu/apps/libtorch/libtorch-cxx11-cuda12.4/include;/home/jxzhu/apps/libtorch/libtorch-cxx11-cuda12.4/include/torch/csrc/api/include
  build with lib:     /home/jxzhu/apps/miniconda3/envs/devel-dplr/lib/python3.11/site-packages/tensorflow;/home/jxzhu/apps/libtorch/libtorch-cxx11-cuda12.4/lib
WARNING: Interaction between types 1 and 3 is set with deepmd, but will be ignored.
 Deepmd model has only 2 types, it only computes the mulitbody interaction of types: 1-2. (/home/jxzhu/apps/deepmd/devel-dplr/source/lmp/pair_deepmd.cpp:884)
WARNING: Interaction between types 2 and 3 is set with deepmd, but will be ignored.
 Deepmd model has only 2 types, it only computes the mulitbody interaction of types: 1-2. (/home/jxzhu/apps/deepmd/devel-dplr/source/lmp/pair_deepmd.cpp:884)
WARNING: Interaction between types 3 and 3 is set with deepmd, but will be ignored.
 Deepmd model has only 2 types, it only computes the mulitbody interaction of types: 1-2. (/home/jxzhu/apps/deepmd/devel-dplr/source/lmp/pair_deepmd.cpp:884)
Finding 1-2 1-3 1-4 neighbors ...
  special bond factors lj:    1        1        1       
  special bond factors coul:  1        1        1       
     1 = max # of 1-2 neighbors
     1 = max # of special neighbors
  special bonds CPU = 0.000 seconds
WARNING: Temperature for fix modify is not for group all (src/fix_nh.cpp:1397)
Added run_style %s successfully.

CITE-CITE-CITE-CITE-CITE-CITE-CITE-CITE-CITE-CITE-CITE-CITE-CITE

Your simulation uses code contributions which should be cited:
- USER-DEEPMD package:
The log file lists these citations in BibTeX format.

CITE-CITE-CITE-CITE-CITE-CITE-CITE-CITE-CITE-CITE-CITE-CITE-CITE

PPPM initialization ...
  using 12-bit tables for long-range coulomb (src/kspace.cpp:342)
  G vector (1/distance) = 0.4
  grid = 64 64 64
  stencil order = 5
  estimated absolute RMS force accuracy = 0.34534068
  estimated relative force accuracy = 0.023982583
  using double precision KISS FFT
  3d grid and FFT values/proc = 421875 262144
WARNING: Interaction between types 1 and 3 is set with deepmd, but will be ignored.
 Deepmd model has only 2 types, it only computes the mulitbody interaction of types: 1-2. (/home/jxzhu/apps/deepmd/devel-dplr/source/lmp/pair_base.cpp:446)
WARNING: Interaction between types 2 and 3 is set with deepmd, but will be ignored.
 Deepmd model has only 2 types, it only computes the mulitbody interaction of types: 1-2. (/home/jxzhu/apps/deepmd/devel-dplr/source/lmp/pair_base.cpp:446)
WARNING: Interaction between types 3 and 3 is set with deepmd, but will be ignored.
 Deepmd model has only 2 types, it only computes the mulitbody interaction of types: 1-2. (/home/jxzhu/apps/deepmd/devel-dplr/source/lmp/pair_base.cpp:446)
Generated 0 of 3 mixed pair_coeff terms from geometric mixing rule
WARNING: Neighbor exclusions used with KSpace solver may give inconsistent Coulombic energies (src/neighbor.cpp:654)
Neighbor list info ...
  update: every = 10 steps, delay = 0 steps, check = no
  max neighbors/atom: 2000, page size: 100000
  master list distance cutoff = 8
  ghost atom cutoff = 8
  binsize = 4, bins = 7 7 7
  1 neighbor lists, perpetual/occasional/extra = 1 0 0
  (1) pair deepmd, perpetual
      attributes: full, newton on
      pair build: full/bin
      stencil: full/bin/3d
      bin: standard
Setting up Verlet/split/dplr run ...
Setting up Verlet run ...
  Unit style    : metal
  Current step  : 0
  Time step     : 0.0005
Per MPI rank memory allocation (min/avg/max) = 46 | 46 | 46 Mbytes
   Step          Temp          E_pair         E_mol          TotEng         Press     
         0   300           -177187.77      0             -177108.39     -15512.225    
        10   263.22486     -177194.62      0             -177124.97      34308.925    
        20   259.78925     -177194.07      0             -177125.34     -16473.728    
        30   286.35422     -177199.98      0             -177124.21      28542.821    
        40   260.59626     -177194.16      0             -177125.21     -11963.392    
        50   282.71131     -177198.33      0             -177123.53      21529.633    
        60   259.845       -177192.24      0             -177123.49     -4383.7919    
        70   272.54196     -177196.09      0             -177123.98      16165.584    
        80   251.5653      -177191.82      0             -177125.26      1313.7402    
        90   267.58593     -177196.04      0             -177125.24      10599.122    
       100   263.347       -177195.1       0             -177125.42      6483.2579    
Loop time of 26.0312 on 1 procs for 100 steps with 2048 atoms

Performance: 0.166 ns/day, 144.618 hours/ns, 3.842 timesteps/s, 7.867 katom-step/s
101.4% CPU use with 1 MPI tasks x 1 OpenMP threads

MPI task timing breakdown:
Section |  min time  |  avg time  |  max time  |%varavg| %total
---------------------------------------------------------------
Pair    | 10.783     | 10.783     | 10.783     |   0.0 | 41.42
Bond    | 0.00011006 | 0.00011006 | 0.00011006 |   0.0 |  0.00
Kspace  | 0          | 0          | 0          |   0.0 |  0.00
Neigh   | 0.16213    | 0.16213    | 0.16213    |   0.0 |  0.62
Comm    | 0.012994   | 0.012994   | 0.012994   |   0.0 |  0.05
Output  | 0.021311   | 0.021311   | 0.021311   |   0.0 |  0.08
Modify  | 15.049     | 15.049     | 15.049     |   0.0 | 57.81
Other   |            | 0.003563   |            |       |  0.01

Nlocal:           2048 ave        2048 max        2048 min
Histogram: 1 0 0 0 0 0 0 0 0 0
Nghost:           6868 ave        6868 max        6868 min
Histogram: 1 0 0 0 0 0 0 0 0 0
Neighs:              0 ave           0 max           0 min
Histogram: 1 0 0 0 0 0 0 0 0 0
FullNghs:       365078 ave      365078 max      365078 min
Histogram: 1 0 0 0 0 0 0 0 0 0

Total # of neighbors = 365078
Ave neighs/atom = 178.26074
Ave special neighs/atom = 0.5
Neighbor list builds = 10
Dangerous builds not checked
Total wall time: 0:00:27
