ITEM: TIMESTEP
0
ITEM: NUMBER OF ATOMS
1536
ITEM: BOX BOUNDS pp pp pp
0.0000000000000000e+00 2.4840000000000000e+01
0.0000000000000000e+00 2.4840000000000000e+01
0.0000000000000000e+00 2.4840000000000000e+01
ITEM: ATOMS id element xu yu zu fx fy fz vx vy vz
1 O 4.88408 2.21818 5.47467 0.552719 -0.370459 0.162543 -6.87302 -4.82406 3.46031
2 H 5.82118 2.50996 5.67133 -0.673576 -0.113644 -0.227886 -2.26316 2.03748 -15.4503
3 H 4.45554 2.87537 4.85393 0.409726 0.35354 0.0359029 -24.8117 10.041 9.76782
4 O 1.88157 6.23867 5.87847 -0.511893 -0.2512 0.236988 5.97925 -1.35946 0.212621
5 H 1.84684 6.64492 6.79118 -0.505182 0.0233523 -0.652273 18.1329 -25.2545 -24.5165
6 H 0.954163 6.14574 5.51817 1.03986 0.300626 0.641 1.62909 9.6183 -27.0235
7 O 4.16888 9.15069 0.123226 0.717226 0.044457 -0.53805 -1.60102 -5.71365 -1.18896
8 H 4.28733 8.42132 11.8693 -0.291529 0.0862287 0.826974 10.2338 5.11673 23.5257
9 H 3.71853 8.78495 0.936244 -0.104807 -0.25518 -0.383428 18.9657 1.71764 -22.4073
10 O 7.05616 12.2595 6.94371 -1.17962 -0.236921 -0.835496 2.11851 -0.912608 2.71209
11 H 6.33994 11.5771 6.80518 0.560293 0.721372 0.0314521 22.4802 14.6061 -13.0676
12 H 6.97554 0.55413 6.24765 0.110657 -0.443014 0.688859 -24.7886 13.1754 -9.464
13 O 0.124259 8.02741 3.93713 -0.608147 -0.248173 -0.362451 1.82589 3.76817 6.69759
14 H 0.0364497 7.15952 3.44893 0.0530384 1.21216 0.244805 -7.37493 -13.6152 26.3806
15 H 11.7344 8.58885 3.7688 0.340981 -1.01976 0.0698674 12.1998 14.1217 8.2461
16 O 11.7707 1.71731 3.40609 -0.720467 -0.517772 -0.204846 -5.87367 2.05246 5.23551
17 H 12.2245 1.30956 4.19793 0.127585 0.529361 -0.30099 -12.4493 -3.24107 14.5447
18 H 11.9089 2.70846 3.41689 0.331021 -0.6589 0.382462 -1.21783 -14.1228 -12.3854
19 O 0.575247 7.42463 12.0201 0.306358 0.233308 -0.647515 -1.9331 -4.34322 -0.239753
20 H 1.45049 7.79571 11.7057 -1.42938 0.04067 0.412602 21.7864 22.6596 -24.1274
21 H 12.3567 8.17587 12.1859 1.01163 -0.250265 0.191453 22.1697 0.490205 0.838142
22 O 10.3394 10.861 10.5959 -0.101612 -0.427004 -0.148104 -2.4863 6.93395 -0.137184
23 H 9.75826 10.6755 11.3867 -0.292296 0.618854 -0.682429 -12.809 -22.178 24.475
24 H 9.7697 11.1142 9.8138 -0.0447459 0.27374 0.586123 -23.3487 0.281168 -6.40126
25 O 8.19857 10.3107 0.0227654 0.518791 -0.379935 0.536105 -3.06315 5.93258 0.354676
26 H 7.50595 10.8214 0.530789 0.561018 -0.374978 -0.0364298 -1.94566 24.4001 -24.7016
27 H 8.72384 9.74059 0.654064 -0.788333 0.853059 -0.490957 14.3283 15.0447 17.9041
28 O 6.54086 3.30805 10.8625 -0.219208 1.15257 0.047363 -5.14931 -6.41457 2.53697
29 H 7.01933 2.43317 10.9353 0.0849342 0.125498 -0.613928 20.1753 7.33905 12.8864
30 H 7.21107 4.04909 10.7987 -0.0601212 -1.01706 0.139662 12.3505 27.6036 21.2323
31 O 4.07921 6.97397 4.36151 0.311742 -0.290334 0.17927 -3.66661 -2.42072 -2.10296
32 H 3.2679 6.61791 4.82231 0.429821 0.337477 0.132099 0.729219 5.2338 18.8991
33 H 4.89759 6.70892 4.87197 -0.984945 -0.0420011 -0.529603 -4.81431 18.951 -12.6916
34 O 11.4426 11.3596 2.55936 -0.0789936 0.103143 0.37188 -1.16129 0.755376 -0.49551
35 H 10.7791 10.9095 3.15474 0.384041 0.602378 -0.555834 -11.6548 -17.3794 -19.0242
36 H 11.3104 12.3505 2.59993 -0.0305301 -0.907203 0.102952 3.92744 16.8088 -25.6345
37 O 1.37283 4.16331 12.1436 -0.0990786 0.0218848 -0.81388 0.47576 0.221534 6.20702
38 H 0.772688 3.58827 11.5887 1.02503 0.847304 0.314272 13.604 3.23263 21.3509
39 H 2.05872 4.59406 11.5548 -1.12149 -0.857011 0.305621 6.84153 18.98 -18.6929
40 O 2.83292 8.21316 2.26625 0.579559 0.272722 0.12196 -3.94771 3.19478 -5.13613
41 H 3.3876 7.64675 2.87538 -0.192316 0.874693 0.230367 -22.4042 -12.106 -27.2809
42 H 2.58815 9.06345 2.73225 -0.0472304 -0.724769 -0.083199 -4.69311 -25.6761 11.4399
43 O 4.1948 4.27212 11.9591 -0.132801 -0.626614 0.473146 6.02332 -3.33389 -4.44216
44 H 5.02798 3.81134 11.651 -0.48699 0.085182 0.389644 -9.99345 21.4425 8.27569
45 H 3.78182 3.75143 0.284659 0.822294 0.412362 -0.852923 -19.1532 10.1769 -6.30964
46 O 7.76099 1.90516 1.186 0.291065 0.0948921 -0.306187 -1.54176 0.238872 -4.90092
47 H 7.5188 1.78743 0.222615 0.481188 -0.740608 0.713116 4.7783 19.1737 4.88195
48 H 7.87324 1.00913 1.61375 0.143804 0.11746 -0.164754 24.9502 3.31822 -19.3293
49 O 10.052 2.8463 0.00578914 0.36299 -0.265607 0.185632 6.64769 -1.01206 -4.97948
50 H 9.33476 2.48441 0.599031 0.673033 -0.0587092 -0.450057 3.55733 -13.3365 -0.683555
51 H 10.86 2.25903 0.0608631 -0.930578 0.335924 -0.0467894 -1.96841 25.5021 -20.5411
52 O 11.6598 11.3679 6.92492 -0.795994 0.0852931 0.7784 -4.12639 -2.24295 1.72314
53 H 12.3275 10.7754 6.47296 -0.017354 -1.12666 0.779747 -20.4473 8.52839 6.60897
54 H 11.323 10.9209 7.75224 0.69378 0.575032 -1.35438 16.6049 -13.5713 -1.34547
55 O 9.84384 9.10836 3.66994 -0.349915 -0.221685 -0.0223561 -1.51991 -3.83799 -6.53938
56 H 9.6794 8.53655 2.86623 -0.445566 0.560235 0.870697 22.0065 -3.78417 -19.6651
57 H 9.03648 9.09911 4.25792 0.954501 -0.0199383 -1.04291 24.5162 -4.67078 -20.2585
58 O 9.01988 4.64904 10.6178 -0.534722 0.420319 0.145968 5.30487 -5.36534 -4.69926
59 H 9.41737 3.96129 11.2244 0.0517922 0.464496 0.380245 -23.4959 -7.13454 -13.5823
60 H 8.61908 5.38455 11.1636 0.519222 -0.716617 -0.168351 -19.9873 15.7541 -2.50271
61 O 5.2371 8.2509 6.95586 0.46829 -0.0123646 -0.00883095 -2.06704 -0.413458 4.19374
62 H 5.77376 8.63792 7.70607 -1.22903 -0.116719 -0.436575 23.65 8.54988 -15.6536
63 H 4.586 7.5863 7.31883 0.869019 0.412964 0.0731722 9.84046 22.6439 -13.7429
64 O 1.38176 5.91134 1.90297 0.0206402 -0.121752 -0.0545946 4.96402 -0.152721 0.027534
65 H 1.07752 5.85078 0.951995 0.467913 0.465195 1.01826 5.50181 17.639 13.9612
66 H 2.02519 6.67238 1.99771 -1.14025 -0.338988 -0.496756 -2.06623 24.9692 7.2173
67 O 5.08235 11.899 10.6909 -0.343996 0.839126 1.21011 -0.83217 4.70715 2.5442
68 H 4.72287 0.334002 11.0646 -0.294192 -1.43196 -0.221751 11.0793 26.9291 24.8393
69 H 5.17881 11.2279 11.4249 -0.356485 1.02066 -0.173777 19.2452 -11.2992 1.99589
70 O 0.759581 0.594221 5.48343 0.630267 -0.315874 0.0496149 0.200544 -5.2105 -1.2365
71 H 0.136866 12.3991 5.96422 0.905497 0.887726 0.197024 4.20474 20.8714 -3.33915
72 H 1.65382 0.582807 5.93215 -1.00939 -0.190127 -0.210407 12.5881 20.4714 11.7589
73 O 6.76829 8.20764 4.44157 -0.345241 0.524059 0.0678113 4.13708 3.08237 3.26932
74 H 6.44658 8.47469 5.34918 -0.506955 -0.199378 -1.06619 -26.3429 21.3899 1.31449
75 H 6.00415 8.22493 3.79723 0.727299 0.0590446 1.17769 -2.00719 -23.577 11.6373
76 O 3.58386 0.34294 6.9652 0.27726 0.422069 -0.271791 -0.149974 2.54808 2.44888
77 H 4.23475 0.955218 6.51335 -0.74447 0.0253713 0.505558 -16.4569 23.0664 19.9894
78 H 3.16068 0.818299 7.73576 -0.0247068 -0.258407 -0.15332 21.368 2.65 -19.8199
79 O 8.66758 6.82409 5.89127 0.397942 -0.207192 -0.233075 -0.68068 6.97135 -3.96591
80 H 8.06212 7.40959 5.3519 0.598199 -0.901075 -0.0842486 -2.95487 -9.85208 0.74871
81 H 9.26537 6.30817 5.27666 -0.839361 0.844596 0.398424 20.9015 -3.05951 -1.83303
82 O 7.36679 0.878824 11.0711 0.0672049 -0.219046 0.257547 4.21862 -1.6117 -4.02109
83 H 7.94811 0.282083 10.517 -0.509834 0.66015 0.0588479 27.3446 -18.7337 7.09402
84 H 6.43863 0.510662 11.0965 0.934793 -0.459572 -0.472198 6.37594 -27.1159 -27.3971
85 O 0.948983 9.60087 6.12611 0.0347927 -0.330144 -0.464894 3.76076 3.36838 -2.54074
86 H 0.655163 9.0917 5.31727 0.494095 -0.0360424 0.797079 -4.50518 10.2398 9.83715
87 H 1.2296 8.96055 6.84025 -0.229393 0.33023 -0.527091 -16.1442 18.6721 11.3907
88 O 1.02455 4.46927 9.15303 0.715091 -0.581726 -0.787199 4.52192 -5.33268 -5.80563
89 H 0.410347 5.2583 9.16069 0.0749503 -0.459427 -0.371 14.4647 7.34061 -15.7301
90 H 1.16241 4.1639 8.21024 -0.349487 0.579918 1.07811 -15.6904 -22.7078 -6.14483
91 O 4.65828 10.7828 5.63112 0.389888 -0.548906 0.13896 6.21943 6.39635 -1.56892
92 H 4.20362 11.3897 6.28228 -0.235797 -0.43075 0.0704607 -12.6408 10.7698 -11.8853
93 H 4.69622 9.85745 6.0062 -0.239504 0.835197 -0.0238746 15.1693 15.7931 -4.30215
94 O 8.8761 12.3463 8.7249 0.500036 -0.106818 0.866688 -2.99338 -3.96563 -6.77395
95 H 8.04337 12.2911 8.17485 0.238904 0.227009 0.0787795 -16.8804 26.715 -14.0755
96 H 9.27496 0.839981 8.63422 -0.581285 -0.468528 -0.0379664 17.5172 -19.6732 -5.63423
97 O 4.35763 6.75469 10.9434 -0.0503593 0.656022 0.0346711 1.39099 -4.20059 4.46064
98 H 4.39802 6.73859 9.94368 0.0599827 -0.60546 0.737855 -18.748 26.9725 -13.3571
99 H 4.18546 5.83187 11.2851 0.22469 0.306447 -0.209944 -14.5919 -21.5806 -15.4256
100 O 1.93374 3.01224 2.11863 0.0141521 0.441054 0.52674 1.85448 2.93761 3.99884
101 H 1.74109 3.65401 1.37533 0.216363 -0.24265 0.350301 10.7526 14.099 9.23229
102 H 2.35765 3.50339 2.87992 -0.168046 -0.290022 -1.04992 7.31159 -24.0565 5.32612
103 O 5.81273 11.3095 1.1442 0.153152 -0.61178 -0.140059 -3.75169 -2.24944 2.69344
104 H 5.48616 11.5903 2.04591 0.0194391 -0.239405 -0.330206 -20.9554 14.6265 1.37672
105 H 5.48162 10.3893 0.939476 -0.375572 0.67642 0.309273 2.95542 5.06262 -9.38554
106 O 1.96317 11.0014 3.09004 0.0188611 0.190609 0.25988 2.79324 -4.66583 -4.70628
107 H 1.05337 11.3623 2.88746 0.446149 -0.463225 0.810306 -0.801852 19.9762 17.1069
108 H 2.22766 11.2636 4.01792 -0.737302 -0.107697 -1.07056 3.11563 13.3351 -10.1338
109 O 1.98757 9.71007 10.3579 0.434784 0.777505 0.0225824 -5.01226 0.634982 -2.65677
110 H 2.96295 9.93086 10.4028 -1.59826 0.181699 0.237085 4.82939 1.23308 -3.84264
111 H 1.45231 10.5477 10.4663 1.19306 -0.890179 -0.17842 -13.209 -6.86681 -5.91505
112 O 9.14686 7.00743 8.68538 -0.335232 -0.260067 -0.0254799 -0.728552 -0.0890036 -1.59673
113 H 9.18436 7.24695 7.71435 -0.415833 -0.762898 0.249367 -12.0887 -22.8611 -7.19013
114 H 8.69704 6.12209 8.79317 0.604049 0.821805 -0.499799 -13.4785 9.65308 9.60022
115 O 1.50918 7.85681 8.23206 0.429862 0.179095 0.16394 0.193692 3.38588 2.98128
116 H 2.26185 8.14115 8.82681 -1.4931 0.0348366 -0.457816 24.3664 -1.91064 24.0586
117 H 0.638169 8.03839 8.6863 1.19164 -0.513256 -0.0263448 -9.7732 -1.92505 0.88489
118 O 1.99694 1.43032 8.93037 0.698684 1.24463 -0.171866 2.22076 -1.1074 1.39822
119 H 1.15284 1.15211 9.38588 0.178119 0.095435 -0.595656 26.6536 -18.9096 9.26394
120 H 2.02832 2.42845 8.86516 -0.325554 -1.30705 0.302932 -8.55389 2.52739 1.19509
121 O 0.220211 1.37068 0.277321 -1.57622 1.0082 -0.314018 4.52922 -6.42718 -3.15906
122 H 0.167193 2.01616 1.03912 0.638247 -1.10646 -0.620327 7.8347 2.76988 22.8361
123 H 1.06612 0.841199 0.347686 0.290747 0.39962 0.755609 -12.7833 25.9946 -13.9288
124 O 9.83999 5.54296 3.16619 -0.630839 -0.732562 0.218232 4.73185 2.91033 -0.662794
125 H 9.30161 6.17754 2.61121 0.625643 -0.432534 0.0254492 17.3734 -25.9387 -18.6391
126 H 9.45751 4.62337 3.08754 0.0333493 0.780356 0.0995367 11.3392 11.6275 -3.52542
127 O 5.30258 2.26101 1.845 -0.803989 -0.189444 0.00604339 1.13538 3.70354 6.70441
128 H 5.05 1.2944 1.83651 0.450521 1.21556 -0.148189 10.7217 -11.8363 13.8527
129 H 6.24941 2.36084 1.53526 -0.506662 -0.533885 0.399231 -18.0114 -26.9154 -0.290412
130 O 9.36341 11.9809 5.50933 0.291872 0.228785 0.106969 -5.77424 -4.39033 5.49118
131 H 10.2836 12.0291 5.89963 -0.989004 -0.3989 0.117963 15.5049 13.756 -3.53708
132 H 8.6867 12.0671 6.23906 0.762501 -0.194925 -0.690788 -27.0414 4.88723 0.95792
133 O 12.1052 4.21377 4.07709 0.446083 0.757795 -0.782774 -5.95392 0.847762 -1.5706
134 H 0.480999 4.47672 3.52917 -1.06389 -0.0251723 0.253897 -15.5655 -6.01532 6.89533
135 H 11.2935 4.68259 3.72951 0.804027 0.203605 0.0220804 8.71529 11.7094 2.06357
136 O 9.29852 7.50035 1.37315 0.437539 -0.231317 -0.500095 -3.01905 4.58662 -1.81565
137 H 10.2213 7.56062 0.989453 -1.19123 0.0209727 0.181241 10.197 -10.1569 -26.9332
138 H 8.66324 7.19574 0.663988 0.415891 0.380338 0.0980386 -21.7026 1.39066 15.0589
139 O 5.33583 0.0556663 3.57633 -0.0916813 0.0317231 0.0964871 -3.83862 -5.87265 -5.9583
140 H 5.09188 0.978491 3.87511 0.305036 -1.10096 0.311149 -18.6087 12.5006 -11.1739
141 H 5.14532 11.8255 4.31033 -0.139445 0.433201 -0.137596 -24.6167 -0.973487 -2.40111
142 O 7.6931 2.29125 5.92601 -0.160293 0.55238 0.844882 0.276911 -0.493356 -4.86271
143 H 8.15633 2.57119 6.76698 0.11166 -0.472091 -0.965941 -11.7244 18.5221 10.663
144 H 8.30541 2.43317 5.14668 -0.232791 -0.0693039 0.199784 4.26277 10.1669 -9.3029
145 O 9.39178 2.59959 8.36228 0.446925 0.28353 0.311306 -6.08282 6.93726 0.52856
146 H 10.2899 2.63277 7.92115 -0.424281 0.41546 0.274376 -27.298 19.7553 -25.8371
147 H 9.41963 3.12595 9.21188 0.202025 -0.405615 -1.14687 -6.70595 -0.324466 4.11853
148 O 11.1774 9.42818 0.490933 0.443884 0.157294 -0.705554 3.28784 2.70832 0.44432
149 H 11.5101 10.0414 1.20777 -0.309663 0.0970528 -0.608283 -25.4393 -20.4373 25.8769
150 H 11.2562 9.8825 12.0225 0.0401355 -0.139605 1.18139 -17.0748 -7.9026 6.19764
151 O 5.63537 10.2093 8.85952 -0.205343 -0.0698666 -0.0874805 1.48176 -4.90113 0.672513
152 H 5.1596 10.9511 9.33169 0.772377 -0.630375 -0.360082 24.8746 -7.59548 18.4675
153 H 6.35873 9.84876 9.44849 -0.575594 0.378784 -0.364142 25.9825 -12.9592 -13.6661
154 O 12.1675 0.629412 9.95459 -0.327078 -0.24786 0.521328 -1.03835 4.54696 5.41711
155 H 11.5885 12.2366 9.9966 0.616744 0.917334 0.516033 -13.99 14.5195 10.6202
156 H 12.3464 0.96153 10.8805 -0.650439 -0.626022 -0.277192 -2.63561 -12.7069 9.01222
157 O 9.01363 2.68093 3.64659 0.25652 0.35965 -0.564128 -5.27023 -3.7512 -5.36647
158 H 9.83309 2.10972 3.70106 -0.293126 0.273839 -0.505471 2.57543 -26.8154 -17.8051
159 H 8.58498 2.56327 2.75071 0.470427 -0.413483 0.98062 5.44514 -3.48775 -22.9254
160 O 6.18192 4.11196 8.23583 0.565846 -0.365728 -0.240874 2.57908 -1.4721 4.56861
161 H 6.0541 3.81783 9.18202 0.545455 -0.379359 -0.564384 -20.6158 26.1732 -25.8218
162 H 6.87151 3.53491 7.79694 -0.992971 0.727544 0.843713 -22.987 -0.0728572 14.7059
163 O 2.37807 3.57697 6.66661 0.63379 -0.00543385 -0.40024 5.97015 -3.19303 -1.98412
164 H 3.03764 3.02006 6.16063 -0.643735 0.930107 0.720398 14.7446 0.239986 13.6001
165 H 2.45564 4.53088 6.37357 -0.151362 -0.894575 -0.193029 9.41924 10.1944 14.012
166 O 8.36416 12.1443 2.95969 -0.894786 -0.112586 -0.485354 -6.37306 -3.46231 -3.88154
167 H 7.40665 11.8675 3.02477 1.2328 0.344249 0.454942 3.43151 8.60334 6.33377
168 H 8.78685 12.1041 3.86484 -0.561237 -0.0315788 -0.0540616 -7.03928 -14.8335 -14.6432
169 O 2.43944 0.574181 1.10379 0.412027 -0.736205 0.167931 2.10603 -4.35119 3.30216
170 H 2.28118 1.36862 1.69017 0.23111 -0.285553 -0.0979117 -18.637 -24.5387 8.81994
171 H 2.37294 12.1588 1.64756 0.223973 0.813808 0.0418572 -20.5441 24.8481 -0.920984
172 O 11.7906 6.43168 9.41939 -0.561784 0.745394 0.638138 1.66649 5.93543 -6.68281
173 H 11.8176 6.52278 10.4143 -0.0471842 0.0975801 -0.886911 5.12666 12.397 -0.241606
174 H 10.8568 6.57878 9.09505 0.458757 -0.203391 0.580811 -24.4474 -2.95504 0.996072
175 O 3.98284 3.93116 3.71556 0.424641 0.361814 -0.0699342 3.7414 -5.73408 -0.841016
176 H 4.47678 4.76892 3.95214 -0.437847 -0.903639 -0.346463 26.1429 -1.52475 -9.41898
177 H 4.51084 3.41434 3.04078 -0.0874944 0.381825 -0.106607 -2.96 13.5694 -16.1963
178 O 7.59518 8.93842 10.0337 0.927412 0.161269 -0.0887795 -4.5166 -1.51047 5.99203
179 H 8.14923 9.62593 10.5046 -0.480631 -1.03743 -0.0754202 25.4675 -13.1814 -23.5922
180 H 8.19486 8.32384 9.52018 0.070256 0.638342 0.000100408 -20.6042 1.68527 -18.6756
181 O 11.7681 3.02983 6.51606 0.262706 -0.225686 0.373513 0.245543 -5.18643 4.64244
182 H 11.8162 3.26134 5.54355 0.472999 -0.13398 1.22691 -7.19834 -3.92698 -9.51915
183 H 0.237821 2.68815 6.82017 -1.10319 0.393022 -0.982506 11.7005 4.44835 20.3181
184 O 4.41049 6.05511 8.39027 -1.1697 -0.0257421 -0.349553 3.55304 4.87078 2.69284
185 H 5.14368 5.40877 8.17694 -0.424364 -0.265647 0.133562 -6.07542 24.0858 5.73074
186 H 3.54023 5.56774 8.44213 1.07852 0.172593 -0.140089 -7.55325 2.40657 -2.51558
187 O 6.03018 5.19146 5.17515 0.930383 -0.13525 0.466354 -1.34971 -3.32661 -5.78709
188 H 6.39953 5.6112 6.00438 0.0868591 -0.809812 -1.27407 -4.294 -1.27064 -11.5713
189 H 6.74103 4.64079 4.73618 -0.627019 0.935731 1.01276 -21.6384 -15.2944 16.4908
190 O 7.39667 6.86638 11.7322 -0.172556 -0.457118 0.183401 0.37936 2.56378 4.94587
191 H 7.39624 7.22223 10.7967 -0.563733 0.298713 1.49276 -14.0358 11.8323 -13.0013
192 H 6.50957 7.04297 12.1563 0.784761 -0.196345 -1.11431 -6.41719 -22.7108 -2.25863
193 O 4.88408 2.21818 17.8947 0.552719 -0.370459 0.162543 -3.67112 4.30364 -0.173397
194 H 5.82118 2.50996 18.0913 -0.673576 -0.113644 -0.227886 -27.212 -12.57 8.96759
195 H 4.45554 2.87537 17.2739 0.409726 0.35354 0.0359029 -4.0961 -16.9139 25.3357
196 O 1.88157 6.23867 18.2985 -0.511893 -0.2512 0.236988 -5.03004 4.31056 6.07892
197 H 1.84684 6.64492 19.2112 -0.505182 0.0233523 -0.652273 -18.0126 6.04937 -23.95
198 H 0.954163 6.14574 17.9382 1.03986 0.300626 0.641 -8.35262 -11.1265 0.474734
199 O 4.16888 9.15069 12.5432 0.717226 0.044457 -0.53805 4.48244 4.83971 3.05932
200 H 4.28733 8.42132 24.2893 -0.291529 0.0862287 0.826974 -9.34184 16.7912 7.16387
201 H 3.71853 8.78495 13.3562 -0.104807 -0.25518 -0.383428 -24.905 -24.8794 -19.0464
202 O 7.05616 12.2595 19.3637 -1.17962 -0.236921 -0.835496 3.67431 -5.78393 0.211065
203 H 6.33994 11.5771 19.2252 0.560293 0.721372 0.0314521 23.5117 -15.0682 -16.2389
204 H 6.97554 0.55413 18.6676 0.110657 -0.443014 0.688859 -22.5137 11.1819 11.256
205 O 0.124259 8.02741 16.3571 -0.608147 -0.248173 -0.362451 -0.0717653 -3.0332 2.85482
206 H 0.0364497 7.15952 15.8689 0.0530384 1.21216 0.244805 -6.66126 -16.1568 -14.7026
207 H 11.7344 8.58885 16.1888 0.340981 -1.01976 0.0698674 -3.4987 -1.4285 19.7321
208 O 11.7707 1.71731 15.8261 -0.720467 -0.517772 -0.204846 6.56427 -0.52045 -6.4587
209 H 12.2245 1.30956 16.6179 0.127585 0.529361 -0.30099 1.30432 -25.4152 13.815
210 H 11.9089 2.70846 15.8369 0.331021 -0.6589 0.382462 5.01943 17.931 -9.39034
211 O 0.575247 7.42463 24.4401 0.306358 0.233308 -0.647515 -3.68197 0.74471 -1.00838
212 H 1.45049 7.79571 24.1257 -1.42938 0.04067 0.412602 -5.27994 26.939 25.5238
213 H 12.3567 8.17587 24.6059 1.01163 -0.250265 0.191453 19.2048 20.3755 -10.375
214 O 10.3394 10.861 23.0159 -0.101612 -0.427004 -0.148104 -4.8327 7.0846 1.86414
215 H 9.75826 10.6755 23.8067 -0.292296 0.618854 -0.682429 -1.74686 23.9035 10.3965
216 H 9.7697 11.1142 22.2338 -0.0447459 0.27374 0.586123 17.2806 2.51778 3.93411
217 O 8.19857 10.3107 12.4428 0.518791 -0.379935 0.536105 -4.68385 6.36479 4.3641
218 H 7.50595 10.8214 12.9508 0.561018 -0.374978 -0.0364298 -18.875 -24.8983 -8.6215
219 H 8.72384 9.74059 13.0741 -0.788333 0.853059 -0.490957 -21.3618 -21.8599 0.974072
220 O 6.54086 3.30805 23.2825 -0.219208 1.15257 0.047363 -6.56505 1.08786 4.85282
221 H 7.01933 2.43317 23.3553 0.0849342 0.125498 -0.613928 0.928318 9.80321 12.9385
222 H 7.21107 4.04909 23.2187 -0.0601212 -1.01706 0.139662 10.8741 -25.8995 -16.928
223 O 4.07921 6.97397 16.7815 0.311742 -0.290334 0.17927 2.35325 -1.87689 -6.01804
224 H 3.2679 6.61791 17.2423 0.429821 0.337477 0.132099 -19.6805 23.312 -15.3025
225 H 4.89759 6.70892 17.292 -0.984945 -0.0420011 -0.529603 -6.56548 4.95453 -18.2796
226 O 11.4426 11.3596 14.9794 -0.0789936 0.103143 0.37188 -6.51095 2.87049 3.55297
227 H 10.7791 10.9095 15.5747 0.384041 0.602378 -0.555834 11.7087 -22.9125 4.86556
228 H 11.3104 12.3505 15.0199 -0.0305301 -0.907203 0.102952 23.3119 23.7821 -3.86466
229 O 1.37283 4.16331 24.5636 -0.0990786 0.0218848 -0.81388 0.0841461 4.79733 5.7103
230 H 0.772688 3.58827 24.0087 1.02503 0.847304 0.314272 5.56996 12.5046 1.00493
231 H 2.05872 4.59406 23.9748 -1.12149 -0.857011 0.305621 -0.500999 -18.3056 26.0281
232 O 2.83292 8.21316 14.6863 0.579559 0.272722 0.12196 1.02454 -2.87545 0.377776
233 H 3.3876 7.64675 15.2954 -0.192316 0.874693 0.230367 10.8794 9.39369 -22.1077
234 H 2.58815 9.06345 15.1523 -0.0472304 -0.724769 -0.083199 2.67192 6.30884 9.14709
235 O 4.1948 4.27212 24.3791 -0.132801 -0.626614 0.473146 -0.0649667 1.22672 1.16788
236 H 5.02798 3.81134 24.071 -0.48699 0.085182 0.389644 -3.21291 -18.8645 0.0702522
237 H 3.78182 3.75143 12.7047 0.822294 0.412362 -0.852923 12.6766 -25.4143 -24.6176
238 O 7.76099 1.90516 13.606 0.291065 0.0948921 -0.306187 0.305443 -2.2238 -6.44747
239 H 7.5188 1.78743 12.6426 0.481188 -0.740608 0.713116 -13.9595 -21.2769 -6.46556
240 H 7.87324 1.00913 14.0338 0.143804 0.11746 -0.164754 2.84137 5.5655 6.03248
241 O 10.052 2.8463 12.4258 0.36299 -0.265607 0.185632 5.98694 3.98295 0.126435
242 H 9.33476 2.48441 13.019 0.673033 -0.0587092 -0.450057 -0.727569 8.4667 10.7374
243 H 10.86 2.25903 12.4809 -0.930578 0.335924 -0.0467894 -5.06319 -0.477975 -1.16189
244 O 11.6598 11.3679 19.3449 -0.795994 0.0852931 0.7784 2.89583 0.712677 -3.12555
245 H 12.3275 10.7754 18.893 -0.017354 -1.12666 0.779747 5.78363 -11.8039 11.0866
246 H 11.323 10.9209 20.1722 0.69378 0.575032 -1.35438 1.67234 24.2508 -14.5495
247 O 9.84384 9.10836 16.0899 -0.349915 -0.221685 -0.0223561 -1.18743 1.58277 3.83703
248 H 9.6794 8.53655 15.2862 -0.445566 0.560235 0.870697 23.0242 10.1848 17.5403
249 H 9.03648 9.09911 16.6779 0.954501 -0.0199383 -1.04291 1.5038 -14.5339 -19.574
250 O 9.01988 4.64904 23.0378 -0.534722 0.420319 0.145968 5.49563 -3.17561 2.02902
251 H 9.41737 3.96129 23.6444 0.0517922 0.464496 0.380245 -27.125 24.1238 -12.3609
252 H 8.61908 5.38455 23.5836 0.519222 -0.716617 -0.168351 19.6559 -11.8683 24.7306
253 O 5.2371 8.2509 19.3759 0.46829 -0.0123646 -0.00883095 0.0958387 -4.94215 -1.20286
254 H 5.77376 8.63792 20.1261 -1.22903 -0.116719 -0.436575 11.0938 -3.23669 -21.5431
255 H 4.586 7.5863 19.7388 0.869019 0.412964 0.0731722 14.5836 -21.6777 -3.27196
256 O 1.38176 5.91134 14.323 0.0206402 -0.121752 -0.0545946 -2.13507 -2.54801 3.48803
257 H 1.07752 5.85078 13.372 0.467913 0.465195 1.01826 -8.84467 -9.02893 -24.3991
258 H 2.02519 6.67238 14.4177 -1.14025 -0.338988 -0.496756 4.01115 -0.563625 -16.3529
259 O 5.08235 11.899 23.1109 -0.343996 0.839126 1.21011 -5.29906 6.7649 4.95916
260 H 4.72287 0.334002 23.4846 -0.294192 -1.43196 -0.221751 -0.444917 -7.02192 16.6493
261 H 5.17881 11.2279 23.8449 -0.356485 1.02066 -0.173777 -18.503 -18.4064 -24.2831
262 O 0.759581 0.594221 17.9034 0.630267 -0.315874 0.0496149 -4.82087 -0.196185 -1.69604
263 H 0.136866 12.3991 18.3842 0.905497 0.887726 0.197024 21.0221 -3.91367 -4.86158
264 H 1.65382 0.582807 18.3522 -1.00939 -0.190127 -0.210407 8.29025 -10.2577 -24.1506
265 O 6.76829 8.20764 16.8616 -0.345241 0.524059 0.0678113 4.32541 5.71037 5.71381
266 H 6.44658 8.47469 17.7692 -0.506955 -0.199378 -1.06619 21.9815 15.0361 -18.0887
267 H 6.00415 8.22493 16.2172 0.727299 0.0590446 1.17769 3.97056 -25.4281 16.5592
268 O 3.58386 0.34294 19.3852 0.27726 0.422069 -0.271791 0.307522 5.21487 -3.11797
269 H 4.23475 0.955218 18.9334 -0.74447 0.0253713 0.505558 20.2436 5.00089 -6.12573
270 H 3.16068 0.818299 20.1558 -0.0247068 -0.258407 -0.15332 17.0883 1.6487 24.0426
271 O 8.66758 6.82409 18.3113 0.397942 -0.207192 -0.233075 -1.09745 1.34057 3.37148
272 H 8.06212 7.40959 17.7719 0.598199 -0.901075 -0.0842486 20.8621 -8.62758 -17.0615
273 H 9.26537 6.30817 17.6967 -0.839361 0.844596 0.398424 13.3209 12.2352 20.7168
274 O 7.36679 0.878824 23.4911 0.0672049 -0.219046 0.257547 -5.87115 3.13157 5.15786
275 H 7.94811 0.282083 22.937 -0.509834 0.66015 0.0588479 -7.70139 -22.2262 -18.6238
276 H 6.43863 0.510662 23.5165 0.934793 -0.459572 -0.472198 -4.55598 -21.8659 9.51563
277 O 0.948983 9.60087 18.5461 0.0347927 -0.330144 -0.464894 0.862995 4.54695 5.14592
278 H 0.655163 9.0917 17.7373 0.494095 -0.0360424 0.797079 14.7581 7.64923 21.6679
279 H 1.2296 8.96055 19.2602 -0.229393 0.33023 -0.527091 20.7322 -0.498727 -21.2511
280 O 1.02455 4.46927 21.573 0.715091 -0.581726 -0.787199 -1.68257 -1.37159 2.52491
281 H 0.410347 5.2583 21.5807 0.0749503 -0.459427 -0.371 -20.7197 -22.94 -19.5949
282 H 1.16241 4.1639 20.6302 -0.349487 0.579918 1.07811 -1.22282 11.6693 -14.4061
283 O 4.65828 10.7828 18.0511 0.389888 -0.548906 0.13896 -1.49719 6.78598 1.71623
284 H 4.20362 11.3897 18.7023 -0.235797 -0.43075 0.0704607 9.92846 22.6312 -7.59233
285 H 4.69622 9.85745 18.4262 -0.239504 0.835197 -0.0238746 19.6804 16.3635 -3.95081
286 O 8.8761 12.3463 21.1449 0.500036 -0.106818 0.866688 -5.86233 0.223602 -0.276116
287 H 8.04337 12.2911 20.5949 0.238904 0.227009 0.0787795 -2.69678 0.223661 13.1348
288 H 9.27496 0.839981 21.0542 -0.581285 -0.468528 -0.0379664 23.714 -10.7073 -19.4364
289 O 4.35763 6.75469 23.3634 -0.0503593 0.656022 0.0346711 -5.36033 -5.5283 6.44237
290 H 4.39802 6.73859 22.3637 0.0599827 -0.60546 0.737855 -5.02814 -14.0879 25.3184
291 H 4.18546 5.83187 23.7051 0.22469 0.306447 -0.209944 18.2704 -16.2973 -20.352
292 O 1.93374 3.01224 14.5386 0.0141521 0.441054 0.52674 -4.17383 -1.96974 0.986256
293 H 1.74109 3.65401 13.7953 0.216363 -0.24265 0.350301 -3.27016 4.93584 -3.73147
294 H 2.35765 3.50339 15.2999 -0.168046 -0.290022 -1.04992 -7.21803 -6.20446 5.43109
295 O 5.81273 11.3095 13.5642 0.153152 -0.61178 -0.140059 -0.967715 -4.58687 2.28591
296 H 5.48616 11.5903 14.4659 0.0194391 -0.239405 -0.330206 27.141 11.0929 -5.38245
297 H 5.48162 10.3893 13.3595 -0.375572 0.67642 0.309273 19.1362 17.7467 16.0176
298 O 1.96317 11.0014 15.51 0.0188611 0.190609 0.25988 -1.72706 -6.50065 -0.332413
299 H 1.05337 11.3623 15.3075 0.446149 -0.463225 0.810306 7.61991 8.2677 7.88341
300 H 2.22766 11.2636 16.4379 -0.737302 -0.107697 -1.07056 16.3837 -6.47579 -7.85136
301 O 1.98757 9.71007 22.7779 0.434784 0.777505 0.0225824 -1.51735 -2.03591 2.60756
302 H 2.96295 9.93086 22.8228 -1.59826 0.181699 0.237085 -19.4511 -11.1782 9.08633
303 H 1.45231 10.5477 22.8863 1.19306 -0.890179 -0.17842 19.4148 -9.9087 -19.5489
304 O 9.14686 7.00743 21.1054 -0.335232 -0.260067 -0.0254799 1.40803 -6.55592 5.73221
305 H 9.18436 7.24695 20.1344 -0.415833 -0.762898 0.249367 -6.46466 1.14806 -8.57537
306 H 8.69704 6.12209 21.2132 0.604049 0.821805 -0.499799 -12.9191 -11.207 18.2235
307 O 1.50918 7.85681 20.6521 0.429862 0.179095 0.16394 -5.16271 2.0935 -6.25994
308 H 2.26185 8.14115 21.2468 -1.4931 0.0348366 -0.457816 -2.29626 -6.50578 -18.9063
309 H 0.638169 8.03839 21.1063 1.19164 -0.513256 -0.0263448 14.0183 9.33474 -26.8136
310 O 1.99694 1.43032 21.3504 0.698684 1.24463 -0.171866 4.05678 1.08003 -2.96044
311 H 1.15284 1.15211 21.8059 0.178119 0.095435 -0.595656 -4.6237 -9.5848 0.744921
312 H 2.02832 2.42845 21.2852 -0.325554 -1.30705 0.302932 12.0078 18.9802 -14.7416
313 O 0.220211 1.37068 12.6973 -1.57622 1.0082 -0.314018 -0.479105 -1.49893 -6.24144
314 H 0.167193 2.01616 13.4591 0.638247 -1.10646 -0.620327 -23.3432 -16.0579 3.57124
315 H 1.06612 0.841199 12.7677 0.290747 0.39962 0.755609 18.1635 -4.00028 18.5467
316 O 9.83999 5.54296 15.5862 -0.630839 -0.732562 0.218232 -2.84367 -4.14125 -2.01344
317 H 9.30161 6.17754 15.0312 0.625643 -0.432534 0.0254492 23.7834 5.14098 -7.22856
318 H 9.45751 4.62337 15.5075 0.0333493 0.780356 0.0995367 -2.02165 7.24521 24.2935
319 O 5.30258 2.26101 14.265 -0.803989 -0.189444 0.00604339 -1.29341 -5.93862 -0.812694
320 H 5.05 1.2944 14.2565 0.450521 1.21556 -0.148189 5.25713 13.8454 19.8956
321 H 6.24941 2.36084 13.9553 -0.506662 -0.533885 0.399231 -20.2112 -21.4194 9.00151
322 O 9.36341 11.9809 17.9293 0.291872 0.228785 0.106969 4.58613 1.36013 2.12636
323 H 10.2836 12.0291 18.3196 -0.989004 -0.3989 0.117963 26.4087 -26.1122 23.0347
324 H 8.6867 12.0671 18.6591 0.762501 -0.194925 -0.690788 -16.724 25.8652 1.20959
325 O 12.1052 4.21377 16.4971 0.446083 0.757795 -0.782774 -3.03958 3.26469 1.18948
326 H 0.480999 4.47672 15.9492 -1.06389 -0.0251723 0.253897 18.468 18.5774 8.70457
327 H 11.2935 4.68259 16.1495 0.804027 0.203605 0.0220804 12.6264 8.07769 -8.29743
328 O 9.29852 7.50035 13.7932 0.437539 -0.231317 -0.500095 0.481623 2.49952 -2.48228
329 H 10.2213 7.56062 13.4095 -1.19123 0.0209727 0.181241 20.2268 -2.91463 22.8426
330 H 8.66324 7.19574 13.084 0.415891 0.380338 0.0980386 -12.2325 24.9903 -21.0228
331 O 5.33583 0.0556663 15.9963 -0.0916813 0.0317231 0.0964871 -1.15287 4.86772 6.30568
332 H 5.09188 0.978491 16.2951 0.305036 -1.10096 0.311149 -9.15043 1.67671 1.91539
333 H 5.14532 11.8255 16.7303 -0.139445 0.433201 -0.137596 17.4286 23.7926 8.86921
334 O 7.6931 2.29125 18.346 -0.160293 0.55238 0.844882 -3.52864 6.31225 1.27562
335 H 8.15633 2.57119 19.187 0.11166 -0.472091 -0.965941 -20.4845 -13.6188 21.1312
336 H 8.30541 2.43317 17.5667 -0.232791 -0.0693039 0.199784 -16.6419 -18.2213 18.3522
337 O 9.39178 2.59959 20.7823 0.446925 0.28353 0.311306 1.41017 1.93707 4.6026
338 H 10.2899 2.63277 20.3412 -0.424281 0.41546 0.274376 9.40526 -5.69836 20.2852
339 H 9.41963 3.12595 21.6319 0.202025 -0.405615 -1.14687 9.16968 -20.8153 -27.4431
340 O 11.1774 9.42818 12.9109 0.443884 0.157294 -0.705554 2.42303 2.01284 -0.679355
341 H 11.5101 10.0414 13.6278 -0.309663 0.0970528 -0.608283 4.07487 -25.3807 -8.19534
342 H 11.2562 9.8825 24.4425 0.0401355 -0.139605 1.18139 19.4541 -6.83334 8.78881
343 O 5.63537 10.2093 21.2795 -0.205343 -0.0698666 -0.0874805 1.053 -5.80829 3.30717
344 H 5.1596 10.9511 21.7517 0.772377 -0.630375 -0.360082 -12.0777 -2.90075 -17.7807
345 H 6.35873 9.84876 21.8685 -0.575594 0.378784 -0.364142 -22.3598 22.0042 26.9213
346 O 12.1675 0.629412 22.3746 -0.327078 -0.24786 0.521328 1.29679 -6.17895 2.57102
347 H 11.5885 12.2366 22.4166 0.616744 0.917334 0.516033 -0.698497 4.041 21.6241
348 H 12.3464 0.96153 23.3005 -0.650439 -0.626022 -0.277192 -3.58599 10.574 -16.3159
349 O 9.01363 2.68093 16.0666 0.25652 0.35965 -0.564128 -0.249292 -2.88657 6.09371
350 H 9.83309 2.10972 16.1211 -0.293126 0.273839 -0.505471 -14.0056 25.073 -1.31699
351 H 8.58498 2.56327 15.1707 0.470427 -0.413483 0.98062 -20.4268 25.5207 19.5113
352 O 6.18192 4.11196 20.6558 0.565846 -0.365728 -0.240874 -3.88366 -6.5364 3.82977
353 H 6.0541 3.81783 21.602 0.545455 -0.379359 -0.564384 -24.6282 25.4451 7.69036
354 H 6.87151 3.53491 20.2169 -0.992971 0.727544 0.843713 4.02306 -19.6382 -20.3761
355 O 2.37807 3.57697 19.0866 0.63379 -0.00543385 -0.40024 4.4658 0.267922 2.08915
356 H 3.03764 3.02006 18.5806 -0.643735 0.930107 0.720398 0.279202 1.69165 -20.9592