LAMMPS (17 Apr 2024)
Processor partition = 1
OMP_NUM_THREADS environment is not set. Defaulting to 1 thread. (src/comm.cpp:98)
  using 1 OpenMP thread(s) per MPI task
Loaded 1 plugins from /home/jxzhu/workspace/softwares/ec-mlp/src/lmp/build
Loaded 1 plugins from /home/jxzhu/workspace/2024-dmff-qeq/softwares/deepmd-kit/build/deepmd_root/lib/deepmd_lmp
Reading data file ...
  orthogonal box = (0 0 0) to (24.84 24.84 24.84)
  1 by 1 by 1 MPI processor grid
  reading atoms ...
  2048 atoms
  scanning bonds ...
  1 = max bonds/atom
  orthogonal box = (0 0 0) to (24.84 24.84 24.84)
  1 by 1 by 1 MPI processor grid
  reading bonds ...
  512 bonds
Finding 1-2 1-3 1-4 neighbors ...
  special bond factors lj:    0        0        0       
  special bond factors coul:  0        0        0       
     1 = max # of 1-2 neighbors
     0 = max # of 1-3 neighbors
     0 = max # of 1-4 neighbors
     1 = max # of special neighbors
  special bonds CPU = 0.000 seconds
  read_data CPU = 0.006 seconds
1536 atoms in group real_atom
512 atoms in group virtual_atom
Summary of lammps deepmd module ...
  >>> Info of deepmd-kit:
  installed to:       /home/jxzhu/workspace/2024-dmff-qeq/softwares/deepmd-kit/build/deepmd_root
  source:             v3.0.0-86-g818a1ee1-dirty
  source branch:      devel-pt-modifier
  source commit:      818a1ee1
  source commit at:   2025-03-03 15:26:21 +0800
  support model ver.: 1.1 
  build variant:      cuda
  build with tf inc:  /home/jxzhu/apps/miniconda3/envs/dp-qeq/lib/python3.11/site-packages/tensorflow/include;/home/jxzhu/apps/miniconda3/envs/dp-qeq/lib/python3.11/site-packages/tensorflow/include
  build with tf lib:  /home/jxzhu/apps/miniconda3/envs/dp-qeq/lib/python3.11/site-packages/tensorflow/libtensorflow_cc.so.2
  build with pt lib:  torch;torch_library;/home/jxzhu/apps/libtorch/libtorch-cxx11-cuda12.4/lib/libc10.so;/home/jxzhu/apps/libtorch/libtorch-cxx11-cuda12.4/lib/libkineto.a;/usr/local/cuda-12.4/targets/x86_64-linux/lib/stubs/libcuda.so;/usr/local/cuda-12.4/targets/x86_64-linux/lib/libnvrtc.so;/usr/lib/x86_64-linux-gnu/libnvToolsExt.so;/usr/local/cuda-12.4/lib64/libcudart.so;/home/jxzhu/apps/libtorch/libtorch-cxx11-cuda12.4/lib/libc10_cuda.so
  set tf intra_op_parallelism_threads: 0
  set tf inter_op_parallelism_threads: 0
  >>> Info of lammps module:
  use deepmd-kit at:  /home/jxzhu/workspace/2024-dmff-qeq/softwares/deepmd-kit/build/deepmd_root
  source:             v3.0.0-86-g818a1ee1-dirty
  source branch:      devel-pt-modifier
  source commit:      818a1ee1
  source commit at:   2025-03-03 15:26:21 +0800
  build with inc:     /home/jxzhu/apps/libtorch/libtorch-cxx11-cuda12.4/include;/home/jxzhu/apps/libtorch/libtorch-cxx11-cuda12.4/include/torch/csrc/api/include
  build with lib:     /home/jxzhu/apps/miniconda3/envs/dp-qeq/lib/python3.11/site-packages/tensorflow;/home/jxzhu/apps/libtorch/libtorch-cxx11-cuda12.4/lib
WARNING: Interaction between types 1 and 3 is set with deepmd, but will be ignored.
 Deepmd model has only 2 types, it only computes the mulitbody interaction of types: 1-2. (/home/jxzhu/workspace/2024-dmff-qeq/softwares/deepmd-kit/source/lmp/pair_deepmd.cpp:883)
WARNING: Interaction between types 2 and 3 is set with deepmd, but will be ignored.
 Deepmd model has only 2 types, it only computes the mulitbody interaction of types: 1-2. (/home/jxzhu/workspace/2024-dmff-qeq/softwares/deepmd-kit/source/lmp/pair_deepmd.cpp:883)
WARNING: Interaction between types 3 and 3 is set with deepmd, but will be ignored.
 Deepmd model has only 2 types, it only computes the mulitbody interaction of types: 1-2. (/home/jxzhu/workspace/2024-dmff-qeq/softwares/deepmd-kit/source/lmp/pair_deepmd.cpp:883)
Finding 1-2 1-3 1-4 neighbors ...
  special bond factors lj:    1        1        1       
  special bond factors coul:  1        1        1       
     1 = max # of 1-2 neighbors
     1 = max # of special neighbors
  special bonds CPU = 0.000 seconds
WARNING: Temperature for fix modify is not for group all (src/fix_nh.cpp:1397)
Added run_style verlet/split/dplr successfully.

CITE-CITE-CITE-CITE-CITE-C